       #
       # Generated by the Wannier90 code http://www.wannier.org
       # On 23Sep2015 at 16:17:37 
       #
CRYSTAL
PRIMVEC
   3.8425000   0.0000000   0.0000000
   0.0000000   3.8425000   0.0000000
   0.0000000   0.0000000   3.8425000
CONVVEC
   3.8425000   0.0000000   0.0000000
   0.0000000   3.8425000   0.0000000
   0.0000000   0.0000000   3.8425000
PRIMCOORD
     5  1
V       0.0000000   0.0000000   0.0000000
Sr      1.9212500   1.9212500   1.9212500
O       1.9212500   0.0000000   0.0000000
O       0.0000000   1.9212500   0.0000000
O       0.0000000   0.0000000   1.9212500


BEGIN_BLOCK_DATAGRID_3D
3D_field
BEGIN_DATAGRID_3D_UNKNOWN
    40    40    40
   -4.034625   -4.034625   -4.034625
   7.4928749   0.0000000   0.0000000
   0.0000000   7.4928749   0.0000000
   0.0000000   0.0000000   7.4928749
  0.72436E-03  0.55899E-03 -0.94680E-04 -0.76174E-03 -0.98274E-03 -0.95714E-03
 -0.11863E-02 -0.18223E-02 -0.26850E-02 -0.35421E-02 -0.40497E-02 -0.37895E-02
 -0.26707E-02 -0.10241E-02  0.86181E-03  0.30078E-02  0.53757E-02  0.74477E-02
  0.84064E-02  0.77324E-02  0.56130E-02  0.29379E-02  0.90303E-03  0.29334E-03
  0.10676E-02  0.28536E-02  0.54717E-02  0.83121E-02  0.97411E-02  0.84725E-02
  0.56183E-02  0.41298E-02  0.56183E-02  0.84725E-02  0.97411E-02  0.83121E-02
  0.54716E-02  0.28536E-02  0.10676E-02  0.29334E-03  0.47713E-03  0.23385E-03
 -0.29004E-03 -0.57091E-03 -0.56822E-03 -0.70239E-03 -0.11461E-02 -0.16468E-02
 -0.20602E-02 -0.25331E-02 -0.29998E-02 -0.29735E-02 -0.20877E-02 -0.53943E-03
  0.11936E-02  0.28247E-02  0.42355E-02  0.51690E-02  0.52555E-02  0.43902E-02
  0.29739E-02  0.17782E-02  0.15253E-02  0.24569E-02  0.43718E-02  0.71598E-02
  0.11102E-01  0.16701E-01  0.24398E-01  0.33756E-01  0.42201E-01  0.45703E-01
  0.42201E-01  0.33756E-01  0.24398E-01  0.16701E-01  0.11102E-01  0.71598E-02
  0.43718E-02  0.24569E-02  0.10709E-03 -0.14672E-04 -0.82855E-04  0.25646E-04
 -0.20889E-04 -0.40115E-03 -0.80413E-03 -0.92495E-03 -0.94812E-03 -0.12142E-02
 -0.15874E-02 -0.15185E-02 -0.73288E-03  0.42283E-03  0.13907E-02  0.19517E-02
  0.22207E-02  0.22690E-02  0.20293E-02  0.15550E-02  0.11727E-02  0.13395E-02
  0.23373E-02  0.40732E-02  0.63408E-02  0.93103E-02  0.13706E-01  0.21007E-01
  0.33351E-01  0.50942E-01  0.68237E-01  0.75660E-01  0.68237E-01  0.50942E-01
  0.33351E-01  0.21007E-01  0.13706E-01  0.93103E-02  0.63408E-02  0.40732E-02
 -0.18911E-03  0.15213E-04  0.44493E-03  0.70958E-03  0.44582E-03 -0.63625E-04
 -0.28437E-03 -0.19203E-03 -0.21624E-03 -0.51523E-03 -0.69895E-03 -0.36627E-03
  0.34530E-03  0.90721E-03  0.98444E-03  0.72036E-03  0.44046E-03  0.26301E-03
  0.15096E-03  0.17517E-03  0.53277E-03  0.14162E-02  0.28804E-02  0.47263E-02
  0.67559E-02  0.92726E-02  0.13160E-01  0.19956E-01  0.31873E-01  0.49327E-01
  0.66800E-01  0.74367E-01  0.66800E-01  0.49327E-01  0.31873E-01  0.19956E-01
  0.13160E-01  0.92726E-02  0.67559E-02  0.47263E-02 -0.24631E-03  0.36182E-03
  0.10573E-02  0.12241E-02  0.80593E-03  0.37806E-03  0.29422E-03  0.27288E-03
 -0.28991E-04 -0.40818E-03 -0.38138E-03  0.98977E-04  0.53195E-03  0.48320E-03
  0.60243E-04 -0.31007E-03 -0.41278E-03 -0.36080E-03 -0.21325E-03  0.21712E-03
  0.10854E-02  0.23491E-02  0.38661E-02  0.53622E-02  0.66130E-02  0.79907E-02
  0.10426E-01  0.14944E-01  0.22684E-01  0.33859E-01  0.45106E-01  0.50011E-01
  0.45106E-01  0.33859E-01  0.22684E-01  0.14944E-01  0.10426E-01  0.79907E-02
  0.66130E-02  0.53622E-02 -0.21299E-03  0.73071E-03  0.14582E-02  0.14917E-02
  0.11440E-02  0.93457E-03  0.84401E-03  0.53135E-03 -0.67392E-05 -0.34385E-03
 -0.19807E-03  0.12342E-03  0.81131E-04 -0.38865E-03 -0.81627E-03 -0.82446E-03
 -0.52289E-03 -0.17999E-03  0.30453E-03  0.13204E-02  0.29546E-02  0.48096E-02
  0.63697E-02  0.71869E-02  0.70375E-02  0.64146E-02  0.64127E-02  0.78164E-02
  0.10871E-01  0.15447E-01  0.20159E-01  0.22249E-01  0.20159E-01  0.15447E-01
  0.10871E-01  0.78164E-02  0.64127E-02  0.64146E-02  0.70375E-02  0.71869E-02
 -0.27265E-03  0.89285E-03  0.16225E-02  0.16907E-02  0.15578E-02  0.14639E-02
  0.11551E-02  0.52629E-03 -0.75028E-04 -0.27534E-03 -0.15122E-03 -0.17180E-03
 -0.60833E-03 -0.11384E-02 -0.12717E-02 -0.97033E-03 -0.52843E-03  0.11973E-04
  0.10820E-02  0.31782E-02  0.61703E-02  0.90902E-02  0.10763E-01  0.10522E-01
  0.84110E-02  0.51848E-02  0.20757E-02  0.32879E-04 -0.74302E-03 -0.50345E-03
  0.21935E-03  0.61111E-03  0.21935E-03 -0.50346E-03 -0.74304E-03  0.32861E-04
  0.20756E-02  0.51847E-02  0.84110E-02  0.10522E-01 -0.52778E-03  0.96952E-03
  0.19855E-02  0.23146E-02  0.23021E-02  0.20132E-02  0.12983E-02  0.40738E-03
 -0.15994E-03 -0.27940E-03 -0.32582E-03 -0.70111E-03 -0.13040E-02 -0.16354E-02
 -0.15214E-02 -0.12938E-02 -0.10717E-02 -0.35969E-03  0.16124E-02  0.54349E-02
  0.10776E-01  0.15681E-01  0.17579E-01  0.15493E-01  0.10544E-01  0.44128E-02
 -0.16954E-02 -0.68933E-02 -0.10654E-01 -0.13066E-01 -0.14467E-01 -0.14950E-01
 -0.14467E-01 -0.13066E-01 -0.10654E-01 -0.68933E-02 -0.16954E-02  0.44128E-02
  0.10544E-01  0.15493E-01 -0.12717E-02  0.10629E-02  0.29918E-02  0.37973E-02
  0.36071E-02  0.27624E-02  0.15849E-02  0.54849E-03  0.20418E-05 -0.20787E-03
 -0.54263E-03 -0.12013E-02 -0.18252E-02 -0.20025E-02 -0.19792E-02 -0.22220E-02
 -0.24114E-02 -0.16100E-02  0.11815E-02  0.71341E-02  0.16285E-01  0.25101E-01
  0.28061E-01  0.23238E-01  0.13982E-01  0.43580E-02 -0.42438E-02 -0.11681E-01
 -0.17497E-01 -0.21584E-01 -0.24227E-01 -0.25211E-01 -0.24227E-01 -0.21584E-01
 -0.17497E-01 -0.11681E-01 -0.42439E-02  0.43580E-02  0.13982E-01  0.23238E-01
 -0.27028E-02  0.11237E-02  0.46723E-02  0.60943E-02  0.53534E-02  0.36315E-02
  0.19972E-02  0.89739E-03  0.27351E-03 -0.19505E-03 -0.81856E-03 -0.15966E-02
 -0.21602E-02 -0.23716E-02 -0.27664E-02 -0.36435E-02 -0.42809E-02 -0.38152E-02
 -0.12335E-02  0.60616E-02  0.19684E-01  0.34487E-01  0.40470E-01  0.33429E-01
  0.19242E-01  0.56511E-02 -0.50878E-02 -0.13913E-01 -0.20951E-01 -0.26010E-01
 -0.29322E-01 -0.30567E-01 -0.29322E-01 -0.26010E-01 -0.20951E-01 -0.13913E-01
 -0.50878E-02  0.56511E-02  0.19242E-01  0.33429E-01 -0.42691E-02  0.12406E-02
  0.65748E-02  0.85438E-02  0.70634E-02  0.43927E-02  0.23538E-02  0.11860E-02
  0.37680E-03 -0.39657E-03 -0.11778E-02 -0.18950E-02 -0.23827E-02 -0.27842E-02
 -0.36996E-02 -0.51280E-02 -0.62140E-02 -0.67312E-02 -0.60310E-02  0.20738E-03
  0.16264E-01  0.36679E-01  0.47368E-01  0.40827E-01  0.23978E-01  0.76889E-02
 -0.44633E-02 -0.14043E-01 -0.21738E-01 -0.27305E-01 -0.30904E-01 -0.32243E-01
 -0.30904E-01 -0.27305E-01 -0.21738E-01 -0.14043E-01 -0.44633E-02  0.76889E-02
  0.23978E-01  0.40827E-01 -0.49360E-02  0.14640E-02  0.77056E-02  0.98679E-02
  0.79261E-02  0.47936E-02  0.26310E-02  0.14338E-02  0.44535E-03 -0.51560E-03
 -0.12913E-02 -0.19102E-02 -0.24555E-02 -0.31582E-02 -0.44953E-02 -0.62863E-02
 -0.77892E-02 -0.94971E-02 -0.11469E-01 -0.86234E-02  0.56813E-02  0.27654E-01
  0.42177E-01  0.39168E-01  0.24149E-01  0.84537E-02 -0.34636E-02 -0.12901E-01
 -0.20580E-01 -0.26189E-01 -0.29797E-01 -0.31128E-01 -0.29797E-01 -0.26189E-01
 -0.20580E-01 -0.12901E-01 -0.34636E-02  0.84537E-02  0.24149E-01  0.39168E-01
 -0.42536E-02  0.15382E-02  0.71467E-02  0.90397E-02  0.72750E-02  0.45480E-02
  0.27170E-02  0.16129E-02  0.56002E-03 -0.40673E-03 -0.10657E-02 -0.16429E-02
 -0.23874E-02 -0.33913E-02 -0.49182E-02 -0.68427E-02 -0.86181E-02 -0.10931E-01
 -0.14423E-01 -0.14883E-01 -0.53139E-02  0.13051E-01  0.27871E-01  0.29005E-01
  0.19139E-01  0.71265E-02 -0.28270E-02 -0.11140E-01 -0.18044E-01 -0.23167E-01
 -0.26512E-01 -0.27753E-01 -0.26512E-01 -0.23167E-01 -0.18044E-01 -0.11140E-01
 -0.28270E-02  0.71265E-02  0.19139E-01  0.29005E-01 -0.28187E-02  0.12936E-02
  0.52495E-02  0.66561E-02  0.55660E-02  0.38006E-02  0.25454E-02  0.16118E-02
  0.60393E-03 -0.25944E-03 -0.76707E-03 -0.13035E-02 -0.22165E-02 -0.34027E-02
 -0.48843E-02 -0.67103E-02 -0.85509E-02 -0.10701E-01 -0.13755E-01 -0.15240E-01
 -0.10027E-01  0.22589E-02  0.13906E-01  0.17224E-01  0.12539E-01  0.50055E-02
 -0.23267E-02 -0.90357E-02 -0.14751E-01 -0.19064E-01 -0.21937E-01 -0.23011E-01
 -0.21937E-01 -0.19064E-01 -0.14751E-01 -0.90357E-02 -0.23267E-02  0.50055E-02
  0.12539E-01  0.17224E-01 -0.16376E-02  0.89016E-03  0.33508E-02  0.44092E-02
  0.40170E-02  0.31191E-02  0.23516E-02  0.16192E-02  0.75922E-03  0.37249E-04
 -0.35472E-03 -0.83117E-03 -0.18133E-02 -0.31066E-02 -0.44816E-02 -0.60736E-02
 -0.78398E-02 -0.96446E-02 -0.11481E-01 -0.12140E-01 -0.90454E-02 -0.17642E-02
  0.58041E-02  0.91539E-02  0.76274E-02  0.34454E-02 -0.15861E-02 -0.66491E-02
 -0.11070E-01 -0.14455E-01 -0.16716E-01 -0.17555E-01 -0.16716E-01 -0.14455E-01
 -0.11070E-01 -0.66491E-02 -0.15861E-02  0.34454E-02  0.76274E-02  0.91539E-02
 -0.12211E-02  0.45526E-03  0.21496E-02  0.30693E-02  0.30852E-02  0.26816E-02
  0.22486E-02  0.17758E-02  0.11815E-02  0.64943E-03  0.32915E-03 -0.12370E-03
 -0.11361E-02 -0.25199E-02 -0.38554E-02 -0.52253E-02 -0.68858E-02 -0.86336E-02
 -0.98610E-02 -0.96738E-02 -0.71427E-02 -0.24557E-02  0.24122E-02  0.51553E-02
  0.50234E-02  0.27744E-02 -0.51697E-03 -0.40130E-02 -0.71214E-02 -0.95423E-02
 -0.11137E-01 -0.11710E-01 -0.11137E-01 -0.95423E-02 -0.71213E-02 -0.40130E-02
 -0.51696E-03  0.27744E-02  0.50234E-02  0.51553E-02 -0.13509E-02  0.11570E-04
  0.14316E-02  0.22970E-02  0.24882E-02  0.23552E-02  0.21732E-02  0.19422E-02
  0.16338E-02  0.13666E-02  0.11749E-02  0.73526E-03 -0.29552E-03 -0.17177E-02
 -0.30656E-02 -0.43693E-02 -0.60253E-02 -0.79246E-02 -0.92041E-02 -0.88811E-02
 -0.65721E-02 -0.28309E-02  0.10148E-02  0.35522E-02  0.40851E-02  0.29042E-02
  0.85379E-03 -0.13255E-02 -0.32573E-02 -0.47548E-02 -0.56811E-02 -0.59878E-02
 -0.56811E-02 -0.47548E-02 -0.32573E-02 -0.13255E-02  0.85380E-03  0.29043E-02
  0.40851E-02  0.35522E-02 -0.15784E-02 -0.31471E-03  0.10199E-02  0.18903E-02
  0.22117E-02  0.22759E-02  0.22473E-02  0.21246E-02  0.20377E-02  0.21595E-02
  0.23126E-02  0.19802E-02  0.88607E-03 -0.63477E-03 -0.21090E-02 -0.35877E-02
 -0.54283E-02 -0.74726E-02 -0.88405E-02 -0.86123E-02 -0.65390E-02 -0.31731E-02
  0.40661E-03  0.30281E-02  0.39918E-02  0.34691E-02  0.22336E-02  0.97491E-03
  0.31171E-04 -0.43417E-03 -0.46707E-03 -0.40302E-03 -0.46707E-03 -0.43417E-03
  0.31176E-04  0.97492E-03  0.22336E-02  0.34691E-02  0.39918E-02  0.30281E-02
 -0.16741E-02 -0.47305E-03  0.81981E-03  0.17248E-02  0.21430E-02  0.23099E-02
  0.23432E-02  0.22909E-02  0.24674E-02  0.31369E-02  0.38662E-02  0.37618E-02
  0.24969E-02  0.65860E-03 -0.11053E-02 -0.28365E-02 -0.48490E-02 -0.69013E-02
 -0.81757E-02 -0.79545E-02 -0.61030E-02 -0.30844E-02  0.20787E-03  0.27522E-02
  0.39151E-02  0.38142E-02  0.30996E-02  0.24715E-02  0.24781E-02  0.33562E-02
  0.46343E-02  0.52557E-02  0.46343E-02  0.33562E-02  0.24781E-02  0.24715E-02
  0.30996E-02  0.38142E-02  0.39151E-02  0.27522E-02 -0.15220E-02 -0.54035E-03
  0.55507E-03  0.13522E-02  0.17237E-02  0.18698E-02  0.19404E-02  0.20366E-02
  0.25125E-02  0.36246E-02  0.47997E-02  0.49201E-02  0.35827E-02  0.15407E-02
 -0.33714E-03 -0.19979E-02 -0.37769E-02 -0.55237E-02 -0.65834E-02 -0.64083E-02
 -0.49169E-02 -0.24821E-02  0.17780E-03  0.22640E-02  0.33187E-02  0.34284E-02
  0.30600E-02  0.28832E-02  0.36413E-02  0.56208E-02  0.79645E-02  0.90329E-02
  0.79645E-02  0.56208E-02  0.36413E-02  0.28832E-02  0.30600E-02  0.34284E-02
  0.33187E-02  0.22640E-02 -0.95512E-03 -0.41411E-03  0.21510E-03  0.67624E-03
  0.87305E-03  0.94108E-03  0.10129E-02  0.11732E-02  0.16399E-02  0.25568E-02
  0.35022E-02  0.36652E-02  0.27404E-02  0.12871E-02 -0.23973E-05 -0.10316E-02
 -0.20608E-02 -0.30789E-02 -0.37240E-02 -0.36568E-02 -0.28077E-02 -0.13965E-02
  0.13958E-03  0.13410E-02  0.19740E-02  0.20925E-02  0.19459E-02  0.19760E-02
  0.27522E-02  0.44777E-02  0.64326E-02  0.73089E-02  0.64326E-02  0.44777E-02
  0.27522E-02  0.19760E-02  0.19459E-02  0.20925E-02  0.19740E-02  0.13410E-02
  0.53526E-08  0.69081E-08  0.65740E-08  0.47698E-08  0.28141E-08  0.17740E-08
  0.20160E-08  0.29226E-08  0.33329E-08  0.29721E-08  0.26226E-08  0.23071E-08
  0.89020E-09 -0.15558E-08 -0.29849E-08 -0.23304E-08 -0.11430E-08 -0.95525E-09
 -0.11915E-08 -0.69907E-09  0.74244E-09  0.26441E-08  0.37687E-08  0.29156E-08
  0.98321E-09 -0.64677E-10 -0.37965E-09 -0.69848E-09  0.80312E-09  0.48999E-08
  0.74021E-08  0.48611E-08  0.42763E-09 -0.14704E-08 -0.13900E-08 -0.14384E-08
 -0.14162E-08 -0.14827E-08 -0.26851E-08 -0.33362E-08  0.95513E-03  0.41412E-03
 -0.21509E-03 -0.67623E-03 -0.87305E-03 -0.94108E-03 -0.10129E-02 -0.11732E-02
 -0.16399E-02 -0.25567E-02 -0.35022E-02 -0.36652E-02 -0.27404E-02 -0.12871E-02
  0.23919E-05  0.10316E-02  0.20608E-02  0.30789E-02  0.37240E-02  0.36568E-02
  0.28077E-02  0.13965E-02 -0.13957E-03 -0.13410E-02 -0.19740E-02 -0.20925E-02
 -0.19459E-02 -0.19760E-02 -0.27522E-02 -0.44777E-02 -0.64326E-02 -0.73089E-02
 -0.64326E-02 -0.44777E-02 -0.27522E-02 -0.19760E-02 -0.19459E-02 -0.20925E-02
 -0.19740E-02 -0.13410E-02  0.15220E-02  0.54035E-03 -0.55506E-03 -0.13522E-02
 -0.17237E-02 -0.18698E-02 -0.19404E-02 -0.20366E-02 -0.25125E-02 -0.36246E-02
 -0.47997E-02 -0.49200E-02 -0.35827E-02 -0.15407E-02  0.33714E-03  0.19979E-02
  0.37769E-02  0.55237E-02  0.65834E-02  0.64083E-02  0.49169E-02  0.24821E-02
 -0.17779E-03 -0.22640E-02 -0.33187E-02 -0.34284E-02 -0.30600E-02 -0.28832E-02
 -0.36413E-02 -0.56208E-02 -0.79645E-02 -0.90329E-02 -0.79645E-02 -0.56208E-02
 -0.36413E-02 -0.28832E-02 -0.30600E-02 -0.34284E-02 -0.33187E-02 -0.22640E-02
  0.16741E-02  0.47305E-03 -0.81980E-03 -0.17248E-02 -0.21430E-02 -0.23099E-02
 -0.23432E-02 -0.22909E-02 -0.24674E-02 -0.31369E-02 -0.38662E-02 -0.37618E-02
 -0.24969E-02 -0.65860E-03  0.11053E-02  0.28365E-02  0.48490E-02  0.69013E-02
  0.81757E-02  0.79545E-02  0.61030E-02  0.30844E-02 -0.20787E-03 -0.27522E-02
 -0.39151E-02 -0.38142E-02 -0.30996E-02 -0.24715E-02 -0.24781E-02 -0.33562E-02
 -0.46343E-02 -0.52557E-02 -0.46343E-02 -0.33562E-02 -0.24781E-02 -0.24715E-02
 -0.30996E-02 -0.38142E-02 -0.39151E-02 -0.27522E-02  0.15785E-02  0.31471E-03
 -0.10199E-02 -0.18903E-02 -0.22117E-02 -0.22759E-02 -0.22473E-02 -0.21246E-02
 -0.20377E-02 -0.21595E-02 -0.23126E-02 -0.19802E-02 -0.88607E-03  0.63477E-03
  0.21090E-02  0.35877E-02  0.54283E-02  0.74726E-02  0.88405E-02  0.86123E-02
  0.65391E-02  0.31731E-02 -0.40661E-03 -0.30281E-02 -0.39918E-02 -0.34691E-02
 -0.22336E-02 -0.97492E-03 -0.31174E-04  0.43417E-03  0.46707E-03  0.40302E-03
  0.46707E-03  0.43417E-03 -0.31175E-04 -0.97492E-03 -0.22336E-02 -0.34691E-02
 -0.39918E-02 -0.30281E-02  0.13509E-02 -0.11571E-04 -0.14316E-02 -0.22970E-02
 -0.24882E-02 -0.23552E-02 -0.21732E-02 -0.19422E-02 -0.16338E-02 -0.13666E-02
 -0.11749E-02 -0.73526E-03  0.29552E-03  0.17177E-02  0.30656E-02  0.43693E-02
  0.60253E-02  0.79246E-02  0.92042E-02  0.88811E-02  0.65721E-02  0.28309E-02
 -0.10148E-02 -0.35522E-02 -0.40851E-02 -0.29043E-02 -0.85379E-03  0.13255E-02
  0.32573E-02  0.47548E-02  0.56811E-02  0.59878E-02  0.56811E-02  0.47548E-02
  0.32573E-02  0.13255E-02 -0.85379E-03 -0.29043E-02 -0.40851E-02 -0.35522E-02
  0.12211E-02 -0.45526E-03 -0.21496E-02 -0.30693E-02 -0.30852E-02 -0.26816E-02
 -0.22486E-02 -0.17758E-02 -0.11815E-02 -0.64943E-03 -0.32915E-03  0.12370E-03
  0.11361E-02  0.25199E-02  0.38554E-02  0.52253E-02  0.68859E-02  0.86336E-02
  0.98610E-02  0.96738E-02  0.71427E-02  0.24557E-02 -0.24122E-02 -0.51553E-02
 -0.50234E-02 -0.27744E-02  0.51696E-03  0.40130E-02  0.71214E-02  0.95423E-02
  0.11137E-01  0.11710E-01  0.11137E-01  0.95423E-02  0.71214E-02  0.40130E-02
  0.51697E-03 -0.27744E-02 -0.50234E-02 -0.51553E-02  0.16376E-02 -0.89016E-03
 -0.33508E-02 -0.44092E-02 -0.40170E-02 -0.31191E-02 -0.23516E-02 -0.16192E-02
 -0.75922E-03 -0.37250E-04  0.35472E-03  0.83117E-03  0.18133E-02  0.31066E-02
  0.44816E-02  0.60736E-02  0.78398E-02  0.96446E-02  0.11481E-01  0.12140E-01
  0.90454E-02  0.17642E-02 -0.58041E-02 -0.91539E-02 -0.76274E-02 -0.34454E-02
  0.15861E-02  0.66491E-02  0.11070E-01  0.14455E-01  0.16716E-01  0.17555E-01
  0.16716E-01  0.14455E-01  0.11070E-01  0.66491E-02  0.15861E-02 -0.34454E-02
 -0.76274E-02 -0.91539E-02  0.28187E-02 -0.12936E-02 -0.52495E-02 -0.66561E-02
 -0.55660E-02 -0.38006E-02 -0.25454E-02 -0.16118E-02 -0.60393E-03  0.25943E-03
  0.76706E-03  0.13035E-02  0.22165E-02  0.34027E-02  0.48843E-02  0.67103E-02
  0.85509E-02  0.10701E-01  0.13755E-01  0.15240E-01  0.10027E-01 -0.22589E-02
 -0.13906E-01 -0.17224E-01 -0.12539E-01 -0.50055E-02  0.23267E-02  0.90357E-02
  0.14751E-01  0.19064E-01  0.21937E-01  0.23011E-01  0.21937E-01  0.19064E-01
  0.14751E-01  0.90357E-02  0.23267E-02 -0.50055E-02 -0.12539E-01 -0.17224E-01
  0.42536E-02 -0.15382E-02 -0.71467E-02 -0.90397E-02 -0.72750E-02 -0.45480E-02
 -0.27170E-02 -0.16129E-02 -0.56002E-03  0.40672E-03  0.10657E-02  0.16429E-02
  0.23874E-02  0.33913E-02  0.49182E-02  0.68427E-02  0.86181E-02  0.10931E-01
  0.14423E-01  0.14883E-01  0.53139E-02 -0.13051E-01 -0.27871E-01 -0.29005E-01
 -0.19139E-01 -0.71265E-02  0.28270E-02  0.11140E-01  0.18044E-01  0.23167E-01
  0.26512E-01  0.27753E-01  0.26512E-01  0.23167E-01  0.18044E-01  0.11140E-01
  0.28270E-02 -0.71265E-02 -0.19139E-01 -0.29005E-01  0.49360E-02 -0.14640E-02
 -0.77056E-02 -0.98679E-02 -0.79261E-02 -0.47936E-02 -0.26310E-02 -0.14338E-02
 -0.44535E-03  0.51560E-03  0.12913E-02  0.19102E-02  0.24555E-02  0.31582E-02
  0.44953E-02  0.62863E-02  0.77892E-02  0.94971E-02  0.11469E-01  0.86234E-02
 -0.56813E-02 -0.27654E-01 -0.42177E-01 -0.39168E-01 -0.24149E-01 -0.84537E-02
  0.34636E-02  0.12901E-01  0.20580E-01  0.26189E-01  0.29797E-01  0.31128E-01
  0.29797E-01  0.26189E-01  0.20580E-01  0.12901E-01  0.34636E-02 -0.84537E-02
 -0.24149E-01 -0.39168E-01  0.42691E-02 -0.12406E-02 -0.65748E-02 -0.85438E-02
 -0.70634E-02 -0.43927E-02 -0.23537E-02 -0.11860E-02 -0.37680E-03  0.39657E-03
  0.11778E-02  0.18950E-02  0.23827E-02  0.27842E-02  0.36996E-02  0.51280E-02
  0.62140E-02  0.67312E-02  0.60310E-02 -0.20738E-03 -0.16264E-01 -0.36679E-01
 -0.47368E-01 -0.40827E-01 -0.23978E-01 -0.76889E-02  0.44633E-02  0.14043E-01
  0.21738E-01  0.27305E-01  0.30904E-01  0.32243E-01  0.30904E-01  0.27305E-01
  0.21738E-01  0.14043E-01  0.44633E-02 -0.76889E-02 -0.23978E-01 -0.40827E-01
  0.27028E-02 -0.11237E-02 -0.46723E-02 -0.60943E-02 -0.53534E-02 -0.36315E-02
 -0.19972E-02 -0.89738E-03 -0.27350E-03  0.19505E-03  0.81856E-03  0.15966E-02
  0.21602E-02  0.23716E-02  0.27664E-02  0.36435E-02  0.42809E-02  0.38152E-02
  0.12335E-02 -0.60616E-02 -0.19684E-01 -0.34487E-01 -0.40470E-01 -0.33429E-01
 -0.19242E-01 -0.56511E-02  0.50878E-02  0.13913E-01  0.20951E-01  0.26010E-01
  0.29322E-01  0.30567E-01  0.29322E-01  0.26010E-01  0.20951E-01  0.13913E-01
  0.50878E-02 -0.56511E-02 -0.19242E-01 -0.33429E-01  0.12717E-02 -0.10629E-02
 -0.29918E-02 -0.37973E-02 -0.36071E-02 -0.27624E-02 -0.15849E-02 -0.54848E-03
 -0.20322E-05  0.20788E-03  0.54264E-03  0.12013E-02  0.18252E-02  0.20025E-02
  0.19791E-02  0.22220E-02  0.24114E-02  0.16100E-02 -0.11815E-02 -0.71341E-02
 -0.16285E-01 -0.25101E-01 -0.28061E-01 -0.23238E-01 -0.13982E-01 -0.43580E-02
  0.42438E-02  0.11681E-01  0.17497E-01  0.21584E-01  0.24227E-01  0.25211E-01
  0.24227E-01  0.21584E-01  0.17497E-01  0.11681E-01  0.42438E-02 -0.43580E-02
 -0.13982E-01 -0.23238E-01  0.52778E-03 -0.96951E-03 -0.19855E-02 -0.23146E-02
 -0.23021E-02 -0.20132E-02 -0.12983E-02 -0.40736E-03  0.15995E-03  0.27941E-03
  0.32582E-03  0.70111E-03  0.13040E-02  0.16354E-02  0.15214E-02  0.12938E-02
  0.10717E-02  0.35967E-03 -0.16124E-02 -0.54349E-02 -0.10776E-01 -0.15681E-01
 -0.17579E-01 -0.15493E-01 -0.10544E-01 -0.44128E-02  0.16954E-02  0.68933E-02
  0.10654E-01  0.13066E-01  0.14467E-01  0.14950E-01  0.14467E-01  0.13066E-01
  0.10654E-01  0.68933E-02  0.16954E-02 -0.44128E-02 -0.10544E-01 -0.15493E-01
  0.27265E-03 -0.89285E-03 -0.16225E-02 -0.16907E-02 -0.15578E-02 -0.14639E-02
 -0.11551E-02 -0.52628E-03  0.75038E-04  0.27535E-03  0.15123E-03  0.17181E-03
  0.60833E-03  0.11383E-02  0.12717E-02  0.97032E-03  0.52842E-03 -0.11981E-04
 -0.10820E-02 -0.31782E-02 -0.61703E-02 -0.90902E-02 -0.10763E-01 -0.10522E-01
 -0.84110E-02 -0.51847E-02 -0.20756E-02 -0.32867E-04  0.74303E-03  0.50346E-03
 -0.21935E-03 -0.61111E-03 -0.21936E-03  0.50345E-03  0.74302E-03 -0.32877E-04
 -0.20756E-02 -0.51847E-02 -0.84110E-02 -0.10522E-01  0.21299E-03 -0.73071E-03
 -0.14582E-02 -0.14917E-02 -0.11440E-02 -0.93458E-03 -0.84401E-03 -0.53134E-03
  0.67477E-05  0.34386E-03  0.19808E-03 -0.12342E-03 -0.81133E-04  0.38865E-03
  0.81626E-03  0.82445E-03  0.52288E-03  0.17999E-03 -0.30453E-03 -0.13204E-02
 -0.29546E-02 -0.48096E-02 -0.63697E-02 -0.71869E-02 -0.70375E-02 -0.64146E-02
 -0.64127E-02 -0.78164E-02 -0.10871E-01 -0.15447E-01 -0.20159E-01 -0.22249E-01
 -0.20159E-01 -0.15447E-01 -0.10871E-01 -0.78164E-02 -0.64127E-02 -0.64146E-02
 -0.70375E-02 -0.71869E-02  0.24632E-03 -0.36182E-03 -0.10573E-02 -0.12241E-02
 -0.80593E-03 -0.37806E-03 -0.29423E-03 -0.27288E-03  0.28998E-04  0.40819E-03
  0.38139E-03 -0.98974E-04 -0.53195E-03 -0.48320E-03 -0.60251E-04  0.31006E-03
  0.41278E-03  0.36080E-03  0.21325E-03 -0.21712E-03 -0.10854E-02 -0.23491E-02
 -0.38661E-02 -0.53622E-02 -0.66130E-02 -0.79907E-02 -0.10426E-01 -0.14944E-01
 -0.22684E-01 -0.33859E-01 -0.45106E-01 -0.50011E-01 -0.45106E-01 -0.33859E-01
 -0.22684E-01 -0.14944E-01 -0.10426E-01 -0.79907E-02 -0.66129E-02 -0.53622E-02
  0.18911E-03 -0.15205E-04 -0.44492E-03 -0.70958E-03 -0.44582E-03  0.63621E-04
  0.28437E-03  0.19203E-03  0.21624E-03  0.51524E-03  0.69896E-03  0.36627E-03
 -0.34531E-03 -0.90722E-03 -0.98445E-03 -0.72036E-03 -0.44046E-03 -0.26300E-03
 -0.15096E-03 -0.17517E-03 -0.53276E-03 -0.14162E-02 -0.28804E-02 -0.47263E-02
 -0.67559E-02 -0.92726E-02 -0.13160E-01 -0.19956E-01 -0.31873E-01 -0.49327E-01
 -0.66800E-01 -0.74367E-01 -0.66800E-01 -0.49327E-01 -0.31873E-01 -0.19956E-01
 -0.13160E-01 -0.92726E-02 -0.67559E-02 -0.47263E-02  0.56805E-03  0.29284E-03
 -0.28686E-03 -0.61077E-03 -0.62712E-03 -0.79003E-03 -0.12810E-02 -0.18406E-02
 -0.23901E-02 -0.31481E-02 -0.39489E-02 -0.40793E-02 -0.30814E-02 -0.12651E-02
  0.74784E-03  0.25852E-02  0.40798E-02  0.50083E-02  0.51097E-02  0.43039E-02
  0.29009E-02  0.16437E-02  0.13320E-02  0.22226E-02  0.40241E-02  0.65805E-02
  0.10187E-01  0.15209E-01  0.21757E-01  0.29291E-01  0.35863E-01  0.38551E-01
  0.35863E-01  0.29291E-01  0.21757E-01  0.15209E-01  0.10187E-01  0.65805E-02
  0.40241E-02  0.22226E-02  0.23485E-03 -0.23900E-04 -0.24411E-03 -0.20130E-03
 -0.25525E-03 -0.67822E-03 -0.11717E-02 -0.14036E-02 -0.16243E-02 -0.22360E-02
 -0.29316E-02 -0.28579E-02 -0.16790E-02  0.49849E-05  0.13977E-02  0.22536E-02
  0.27633E-02  0.30655E-02  0.31080E-02  0.28533E-02  0.25169E-02  0.25898E-02
  0.34656E-02  0.50799E-02  0.72479E-02  0.10260E-01  0.14986E-01  0.23173E-01
  0.37478E-01  0.58281E-01  0.78931E-01  0.87824E-01  0.78931E-01  0.58281E-01
  0.37478E-01  0.23173E-01  0.14986E-01  0.10260E-01  0.72479E-02  0.50799E-02
 -0.35414E-04  0.50592E-04  0.33112E-03  0.49081E-03  0.17793E-03 -0.33451E-03
 -0.54490E-03 -0.49848E-03 -0.66489E-03 -0.11258E-02 -0.13211E-02 -0.75208E-03
  0.32792E-03  0.11707E-02  0.13745E-02  0.12155E-02  0.11597E-02  0.13352E-02
  0.15876E-02  0.18265E-02  0.22101E-02  0.30660E-02  0.45460E-02  0.64270E-02
  0.86046E-02  0.11630E-01  0.16720E-01  0.26442E-01  0.44961E-01  0.73268E-01
  0.10201E+00  0.11450E+00  0.10201E+00  0.73268E-01  0.44961E-01  0.26442E-01
  0.16720E-01  0.11630E-01  0.86046E-02  0.64270E-02 -0.16719E-03  0.37946E-03
  0.98270E-03  0.10237E-02  0.51728E-03  0.12756E-03  0.13552E-03  0.10938E-03
 -0.24445E-03 -0.50802E-03 -0.14121E-03  0.70796E-03  0.13231E-02  0.12351E-02
  0.68463E-03  0.26550E-03  0.26486E-03  0.50638E-03  0.78141E-03  0.11653E-02
  0.18960E-02  0.31740E-02  0.49644E-02  0.68909E-02  0.87387E-02  0.11075E-01
  0.15158E-01  0.23239E-01  0.38917E-01  0.63272E-01  0.88329E-01  0.99290E-01
  0.88329E-01  0.63272E-01  0.38917E-01  0.23239E-01  0.15158E-01  0.11075E-01
  0.87387E-02  0.68909E-02 -0.11277E-03  0.77217E-03  0.13993E-02  0.12871E-02
  0.83494E-03  0.62756E-03  0.55329E-03  0.19115E-03 -0.30678E-03 -0.33025E-03
  0.27629E-03  0.90607E-03  0.92580E-03  0.40820E-03 -0.52344E-04 -0.72221E-04
  0.17435E-03  0.34848E-03  0.52296E-03  0.11287E-02  0.24016E-02  0.41865E-02
  0.60895E-02  0.75316E-02  0.81824E-02  0.86629E-02  0.10297E-01  0.14553E-01
  0.23256E-01  0.37047E-01  0.51513E-01  0.57918E-01  0.51513E-01  0.37047E-01
  0.23256E-01  0.14553E-01  0.10297E-01  0.86629E-02  0.81824E-02  0.75316E-02
  0.41159E-04  0.10621E-02  0.15748E-02  0.14796E-02  0.12797E-02  0.11430E-02
  0.75904E-03  0.10932E-03 -0.31016E-03 -0.15728E-03  0.26337E-03  0.36076E-03
 -0.13193E-04 -0.40529E-03 -0.37334E-03 -0.24628E-04  0.21863E-03  0.28043E-03
  0.68976E-03  0.20564E-02  0.43251E-02  0.67435E-02  0.84133E-02  0.86066E-02
  0.70899E-02  0.46909E-02  0.29585E-02  0.29969E-02  0.52816E-02  0.98329E-02
  0.15012E-01  0.17387E-01  0.15012E-01  0.98329E-02  0.52816E-02  0.29969E-02
  0.29585E-02  0.46909E-02  0.70899E-02  0.86066E-02  0.86598E-04  0.11442E-02
  0.16727E-02  0.18020E-02  0.18152E-02  0.15191E-02  0.76323E-03  0.83087E-05
 -0.23103E-03 -0.79178E-04 -0.49922E-04 -0.37509E-03 -0.76287E-03 -0.78108E-03
 -0.43896E-03 -0.17314E-03 -0.16489E-03  0.62261E-04  0.12882E-02  0.39271E-02
  0.74855E-02  0.10574E-01  0.11695E-01  0.10093E-01  0.60095E-02  0.57892E-03
 -0.46146E-02 -0.84346E-02 -0.10625E-01 -0.11408E-01 -0.11292E-01 -0.11099E-01
 -0.11292E-01 -0.11408E-01 -0.10625E-01 -0.84346E-02 -0.46146E-02  0.57892E-03
  0.60095E-02  0.10093E-01 -0.17230E-03  0.11856E-02  0.21593E-02  0.26301E-02
  0.25589E-02  0.18281E-02  0.73095E-03 -0.40656E-04 -0.23435E-03 -0.28455E-03
 -0.59278E-03 -0.10352E-02 -0.12099E-02 -0.98446E-03 -0.75814E-03 -0.92406E-03
 -0.11019E-02 -0.36599E-03  0.19848E-02  0.62030E-02  0.11684E-01  0.16235E-01
  0.17053E-01  0.13186E-01  0.61179E-02 -0.21082E-02 -0.10182E-01 -0.17246E-01
 -0.22736E-01 -0.26610E-01 -0.29023E-01 -0.29872E-01 -0.29023E-01 -0.26610E-01
 -0.22736E-01 -0.17246E-01 -0.10182E-01 -0.21083E-02  0.61178E-02  0.13186E-01
 -0.92323E-03  0.14795E-02  0.36096E-02  0.44568E-02  0.38441E-02  0.23912E-02
  0.99083E-03  0.18311E-03 -0.18786E-03 -0.57167E-03 -0.10795E-02 -0.14581E-02
 -0.14895E-02 -0.13525E-02 -0.15733E-02 -0.22287E-02 -0.24589E-02 -0.13466E-02
  0.16271E-02  0.74213E-02  0.16290E-01  0.24713E-01  0.26747E-01  0.20267E-01
  0.90120E-02 -0.25244E-02 -0.12991E-01 -0.22465E-01 -0.30434E-01 -0.36473E-01
 -0.40494E-01 -0.41980E-01 -0.40494E-01 -0.36473E-01 -0.30434E-01 -0.22465E-01
 -0.12991E-01 -0.25244E-02  0.90119E-02  0.20267E-01 -0.21822E-02  0.21235E-02
  0.61077E-02  0.73067E-02  0.57046E-02  0.32449E-02  0.14934E-02  0.56499E-03
 -0.12738E-03 -0.84772E-03 -0.14254E-02 -0.17089E-02 -0.17676E-02 -0.19431E-02
 -0.26719E-02 -0.36930E-02 -0.40540E-02 -0.34308E-02 -0.14192E-02  0.49038E-02
  0.18092E-01  0.33158E-01  0.39133E-01  0.31010E-01  0.14945E-01 -0.66885E-03
 -0.13475E-01 -0.24655E-01 -0.34279E-01 -0.41732E-01 -0.46742E-01 -0.48604E-01
 -0.46742E-01 -0.41732E-01 -0.34279E-01 -0.24655E-01 -0.13475E-01 -0.66886E-03
  0.14945E-01  0.31010E-01 -0.34455E-02  0.29691E-02  0.88730E-02  0.10313E-01
  0.76226E-02  0.41327E-02  0.19730E-02  0.81611E-03 -0.21291E-03 -0.11380E-02
 -0.16625E-02 -0.18869E-02 -0.20994E-02 -0.26096E-02 -0.36997E-02 -0.49717E-02
 -0.57622E-02 -0.66918E-02 -0.75618E-02 -0.30873E-02  0.12591E-01  0.34205E-01
  0.46073E-01  0.39189E-01  0.20556E-01  0.19654E-02 -0.12578E-01 -0.24756E-01
 -0.35215E-01 -0.43314E-01 -0.48703E-01 -0.50692E-01 -0.48703E-01 -0.43314E-01
 -0.35215E-01 -0.24756E-01 -0.12578E-01  0.19654E-02  0.20556E-01  0.39189E-01
 -0.39174E-02  0.35950E-02  0.10401E-01  0.11861E-01  0.86308E-02  0.47159E-02
  0.23573E-02  0.97440E-03 -0.28218E-03 -0.12145E-02 -0.16079E-02 -0.18763E-02
 -0.23625E-02 -0.31472E-02 -0.44026E-02 -0.58837E-02 -0.73153E-02 -0.10012E-01
 -0.14216E-01 -0.13541E-01  0.47258E-03  0.24209E-01  0.40652E-01  0.37833E-01
  0.21183E-01  0.30977E-02 -0.11290E-01 -0.23251E-01 -0.33491E-01 -0.41399E-01
 -0.46629E-01 -0.48549E-01 -0.46629E-01 -0.41399E-01 -0.33491E-01 -0.23251E-01
 -0.11290E-01  0.30977E-02  0.21183E-01  0.37833E-01 -0.33083E-02  0.34930E-02
  0.95426E-02  0.10763E-01  0.79371E-02  0.46094E-02  0.25228E-02  0.10864E-02
 -0.21036E-03 -0.99812E-03 -0.12630E-02 -0.16717E-02 -0.24749E-02 -0.34227E-02
 -0.46428E-02 -0.62537E-02 -0.81969E-02 -0.11681E-01 -0.17314E-01 -0.19725E-01
 -0.10378E-01  0.96240E-02  0.26253E-01  0.27648E-01  0.16373E-01  0.22437E-02
 -0.98555E-02 -0.20273E-01 -0.29248E-01 -0.36207E-01 -0.40848E-01 -0.42561E-01
 -0.40848E-01 -0.36207E-01 -0.29248E-01 -0.20273E-01 -0.98555E-02  0.22437E-02
  0.16373E-01  0.27648E-01 -0.21419E-02  0.26787E-02  0.68900E-02  0.77724E-02
  0.59860E-02  0.38601E-02  0.23561E-02  0.10701E-02 -0.85497E-04 -0.68567E-03
 -0.88092E-03 -0.14102E-02 -0.24058E-02 -0.33803E-02 -0.44293E-02 -0.60219E-02
 -0.81445E-02 -0.11209E-01 -0.15666E-01 -0.18361E-01 -0.13265E-01  0.49109E-04
  0.12746E-01  0.16012E-01  0.10160E-01  0.10426E-02 -0.78441E-02 -0.16071E-01
 -0.23286E-01 -0.28935E-01 -0.32753E-01 -0.34173E-01 -0.32753E-01 -0.28935E-01
 -0.23286E-01 -0.16071E-01 -0.78441E-02  0.10426E-02  0.10160E-01  0.16012E-01
 -0.12021E-02  0.17308E-02  0.42715E-02  0.49530E-02  0.41698E-02  0.30850E-02
  0.20992E-02  0.10866E-02  0.21020E-03 -0.22229E-03 -0.42258E-03 -0.99528E-03
 -0.20140E-02 -0.29766E-02 -0.39045E-02 -0.53862E-02 -0.74533E-02 -0.97425E-02
 -0.12079E-01 -0.13092E-01 -0.99543E-02 -0.22740E-02  0.55188E-02  0.84546E-02
  0.60014E-02  0.79675E-03 -0.51894E-02 -0.11218E-01 -0.16633E-01 -0.20918E-01
 -0.23822E-01 -0.24897E-01 -0.23822E-01 -0.20918E-01 -0.16633E-01 -0.11218E-01
 -0.51894E-02  0.79675E-03  0.60014E-02  0.84546E-02 -0.86010E-03  0.10298E-02
  0.26951E-02  0.33512E-02  0.31656E-02  0.26451E-02  0.19870E-02  0.12934E-02
  0.77239E-03  0.50938E-03  0.27018E-03 -0.31635E-03 -0.12792E-02 -0.22579E-02