       #
       # Generated by the Wannier90 code http://www.wannier.org
       # On 23Sep2015 at 16:17:37 
       #
CRYSTAL
PRIMVEC
   3.8425000   0.0000000   0.0000000
   0.0000000   3.8425000   0.0000000
   0.0000000   0.0000000   3.8425000
CONVVEC
   3.8425000   0.0000000   0.0000000
   0.0000000   3.8425000   0.0000000
   0.0000000   0.0000000   3.8425000
PRIMCOORD
     5  1
V       0.0000000   0.0000000   0.0000000
Sr      1.9212500   1.9212500   1.9212500
O       1.9212500   0.0000000   0.0000000
O       0.0000000   1.9212500   0.0000000
O       0.0000000   0.0000000   1.9212500


BEGIN_BLOCK_DATAGRID_3D
3D_field
BEGIN_DATAGRID_3D_UNKNOWN
    40    40    40
   -4.034625   -4.034625   -4.034625
   7.4928749   0.0000000   0.0000000
   0.0000000   7.4928749   0.0000000
   0.0000000   0.0000000   7.4928749
  0.17180E-02  0.20335E-02  0.18761E-02  0.17387E-02  0.24133E-02  0.43091E-02
  0.71489E-02  0.10918E-01  0.15492E-01  0.18027E-01  0.13902E-01  0.32439E-02
 -0.67572E-02 -0.95288E-02 -0.60339E-02 -0.12506E-02  0.23399E-02  0.47247E-02
  0.55444E-02  0.45632E-02  0.29314E-02  0.21842E-02  0.29314E-02  0.45632E-02
  0.55444E-02  0.47247E-02  0.23400E-02 -0.12506E-02 -0.60339E-02 -0.95288E-02
 -0.67572E-02  0.32439E-02  0.13902E-01  0.18027E-01  0.15492E-01  0.10918E-01
  0.71490E-02  0.43091E-02  0.24134E-02  0.17387E-02  0.11648E-02  0.14598E-02
  0.14613E-02  0.16626E-02  0.27419E-02  0.49900E-02  0.82469E-02  0.13021E-01
  0.19681E-01  0.24900E-01  0.22457E-01  0.11176E-01 -0.13076E-02 -0.67139E-02
 -0.48079E-02 -0.64619E-03  0.26847E-02  0.48166E-02  0.53010E-02  0.39032E-02
  0.18850E-02  0.97593E-03  0.18850E-02  0.39032E-02  0.53011E-02  0.48166E-02
  0.26847E-02 -0.64617E-03 -0.48079E-02 -0.67139E-02 -0.13076E-02  0.11176E-01
  0.22457E-01  0.24900E-01  0.19681E-01  0.13021E-01  0.82469E-02  0.49900E-02
  0.27420E-02  0.16626E-02  0.72119E-03  0.10779E-02  0.13161E-02  0.17293E-02
  0.28200E-02  0.49223E-02  0.80458E-02  0.12767E-01  0.19597E-01  0.25711E-01
  0.25200E-01  0.16056E-01  0.43659E-02 -0.21478E-02 -0.21987E-02  0.47242E-03
  0.30700E-02  0.47838E-02  0.48710E-02  0.31312E-02  0.90364E-03 -0.73215E-04
  0.90365E-03  0.31312E-02  0.48711E-02  0.47838E-02  0.30700E-02  0.47244E-03
 -0.21987E-02 -0.21477E-02  0.43659E-02  0.16056E-01  0.25200E-01  0.25711E-01
  0.19597E-01  0.12767E-01  0.80458E-02  0.49224E-02  0.28200E-02  0.17294E-02
  0.72192E-03  0.11685E-02  0.14981E-02  0.18285E-02  0.25668E-02  0.41622E-02
  0.66832E-02  0.10279E-01  0.15191E-01  0.19794E-01  0.20203E-01  0.14548E-01
  0.63856E-02  0.10713E-02  0.14156E-03  0.15553E-02  0.33608E-02  0.45773E-02
  0.43530E-02  0.26096E-02  0.58858E-03 -0.26918E-03  0.58859E-03  0.26097E-02
  0.43531E-02  0.45774E-02  0.33609E-02  0.15553E-02  0.14157E-03  0.10713E-02
  0.63856E-02  0.14548E-01  0.20203E-01  0.19794E-01  0.15191E-01  0.10279E-01
  0.66832E-02  0.41623E-02  0.25668E-02  0.18285E-02  0.11709E-02  0.15875E-02
  0.17814E-02  0.18662E-02  0.21587E-02  0.30739E-02  0.46783E-02  0.67402E-02
  0.91522E-02  0.11332E-01  0.11588E-01  0.87985E-02  0.44842E-02  0.14772E-02
  0.88909E-03  0.18366E-02  0.32341E-02  0.43373E-02  0.44746E-02  0.35812E-02
  0.24596E-02  0.19814E-02  0.24596E-02  0.35812E-02  0.44746E-02  0.43374E-02
  0.32341E-02  0.18367E-02  0.88909E-03  0.14772E-02  0.44842E-02  0.87985E-02
  0.11588E-01  0.11332E-01  0.91522E-02  0.67402E-02  0.46783E-02  0.30739E-02
  0.21588E-02  0.18662E-02  0.18466E-02  0.21411E-02  0.21265E-02  0.19752E-02
  0.18343E-02  0.19296E-02  0.24080E-02  0.31026E-02  0.37835E-02  0.42550E-02
  0.40226E-02  0.26932E-02  0.90346E-03 -0.88627E-04  0.22575E-03  0.14598E-02
  0.31769E-02  0.50065E-02  0.64155E-02  0.71151E-02  0.73266E-02  0.73633E-02
  0.73267E-02  0.71151E-02  0.64155E-02  0.50065E-02  0.31769E-02  0.14598E-02
  0.22575E-03 -0.88631E-04  0.90345E-03  0.26932E-02  0.40226E-02  0.42550E-02
  0.37835E-02  0.31027E-02  0.24080E-02  0.19296E-02  0.18343E-02  0.19752E-02
  0.26944E-02  0.29260E-02  0.27486E-02  0.23096E-02  0.16389E-02  0.84832E-03
  0.21096E-03 -0.15821E-03 -0.40498E-03 -0.73232E-03 -0.12938E-02 -0.20200E-02
 -0.24370E-02 -0.20434E-02 -0.79951E-03  0.11204E-02  0.36683E-02  0.66223E-02
  0.94849E-02  0.11915E-01  0.13696E-01  0.14387E-01  0.13696E-01  0.11915E-01
  0.94849E-02  0.66223E-02  0.36683E-02  0.11204E-02 -0.79951E-03 -0.20433E-02
 -0.24370E-02 -0.20200E-02 -0.12938E-02 -0.73231E-03 -0.40497E-03 -0.15820E-03
  0.21098E-03  0.84834E-03  0.16389E-02  0.23096E-02  0.40138E-02  0.43732E-02
  0.40254E-02  0.30359E-02  0.16096E-02  0.15422E-04 -0.14536E-02 -0.26239E-02
 -0.35395E-02 -0.43462E-02 -0.50400E-02 -0.53176E-02 -0.48120E-02 -0.35024E-02
 -0.15925E-02  0.94029E-03  0.41661E-02  0.78805E-02  0.12127E-01  0.17218E-01
  0.22169E-01  0.24338E-01  0.22169E-01  0.17218E-01  0.12127E-01  0.78805E-02
  0.41661E-02  0.94029E-03 -0.15925E-02 -0.35024E-02 -0.48120E-02 -0.53176E-02
 -0.50400E-02 -0.43462E-02 -0.35395E-02 -0.26239E-02 -0.14536E-02  0.15435E-04
  0.16096E-02  0.30359E-02  0.64158E-02  0.72393E-02  0.65991E-02  0.45739E-02
  0.19899E-02 -0.41701E-03 -0.24610E-02 -0.42153E-02 -0.57010E-02 -0.68729E-02
 -0.75513E-02 -0.73980E-02 -0.62890E-02 -0.45310E-02 -0.23341E-02  0.48175E-03
  0.39253E-02  0.81364E-02  0.14671E-01  0.25016E-01  0.36276E-01  0.41358E-01
  0.36276E-01  0.25016E-01  0.14671E-01  0.81364E-02  0.39253E-02  0.48175E-03
 -0.23341E-02 -0.45310E-02 -0.62890E-02 -0.73980E-02 -0.75513E-02 -0.68728E-02
 -0.57010E-02 -0.42153E-02 -0.24610E-02 -0.41700E-03  0.19899E-02  0.45740E-02
  0.10272E-01  0.11952E-01  0.10811E-01  0.71778E-02  0.29354E-02 -0.49631E-03
 -0.30818E-02 -0.52496E-02 -0.70616E-02 -0.83460E-02 -0.88931E-02 -0.84806E-02
 -0.71685E-02 -0.53320E-02 -0.30837E-02 -0.27282E-03  0.29997E-02  0.75879E-02
  0.16870E-01  0.33253E-01  0.51423E-01  0.59619E-01  0.51423E-01  0.33253E-01
  0.16870E-01  0.75879E-02  0.29997E-02 -0.27282E-03 -0.30837E-02 -0.53320E-02
 -0.71685E-02 -0.84806E-02 -0.88931E-02 -0.83459E-02 -0.70616E-02 -0.52496E-02
 -0.30818E-02 -0.49631E-03  0.29354E-02  0.71778E-02  0.14590E-01  0.17198E-01
  0.15405E-01  0.10019E-01  0.40905E-02 -0.34541E-03 -0.34264E-02 -0.58706E-02
 -0.77880E-02 -0.90095E-02 -0.94301E-02 -0.89374E-02 -0.75914E-02 -0.56847E-02
 -0.33721E-02 -0.78712E-03  0.18007E-02  0.56631E-02  0.14913E-01  0.32157E-01
  0.51447E-01  0.60144E-01  0.51447E-01  0.32157E-01  0.14913E-01  0.56631E-02
  0.18007E-02 -0.78712E-03 -0.33721E-02 -0.56847E-02 -0.75914E-02 -0.89374E-02
 -0.94301E-02 -0.90095E-02 -0.77880E-02 -0.58706E-02 -0.34264E-02 -0.34541E-03
  0.40905E-02  0.10019E-01  0.16910E-01  0.19916E-01  0.17647E-01  0.11351E-01
  0.46772E-02 -0.19736E-03 -0.35555E-02 -0.61656E-02 -0.81133E-02 -0.92837E-02
 -0.96525E-02 -0.91020E-02 -0.76068E-02 -0.54471E-02 -0.30209E-02 -0.85506E-03
  0.51724E-03  0.19447E-02  0.65268E-02  0.16462E-01  0.28179E-01  0.33554E-01
  0.28179E-01  0.16462E-01  0.65268E-02  0.19447E-02  0.51724E-03 -0.85506E-03
 -0.30209E-02 -0.54471E-02 -0.76068E-02 -0.91020E-02 -0.96526E-02 -0.92837E-02
 -0.81133E-02 -0.61656E-02 -0.35555E-02 -0.19737E-03  0.46772E-02  0.11351E-01
  0.15445E-01  0.18011E-01  0.15809E-01  0.10120E-01  0.41114E-02 -0.48083E-03
 -0.38643E-02 -0.64919E-02 -0.83588E-02 -0.94458E-02 -0.97377E-02 -0.90333E-02
 -0.72810E-02 -0.48687E-02 -0.24421E-02 -0.75967E-03 -0.54931E-03 -0.18325E-02
 -0.34227E-02 -0.38742E-02 -0.31414E-02 -0.26055E-02 -0.31414E-02 -0.38742E-02
 -0.34227E-02 -0.18325E-02 -0.54932E-03 -0.75968E-03 -0.24421E-02 -0.48687E-02
 -0.72810E-02 -0.90333E-02 -0.97377E-02 -0.94458E-02 -0.83589E-02 -0.64919E-02
 -0.38643E-02 -0.48084E-03  0.41114E-02  0.10120E-01  0.11141E-01  0.12748E-01
  0.11115E-01  0.70698E-02  0.25351E-02 -0.13853E-02 -0.45599E-02 -0.69863E-02
 -0.86478E-02 -0.96324E-02 -0.98253E-02 -0.89074E-02 -0.68952E-02 -0.43260E-02
 -0.19442E-02 -0.50956E-03 -0.73440E-03 -0.31359E-02 -0.78731E-02 -0.14273E-01
 -0.20184E-01 -0.22640E-01 -0.20184E-01 -0.14273E-01 -0.78732E-02 -0.31359E-02
 -0.73441E-03 -0.50957E-03 -0.19442E-02 -0.43260E-02 -0.68952E-02 -0.89074E-02
 -0.98253E-02 -0.96324E-02 -0.86478E-02 -0.69863E-02 -0.45599E-02 -0.13853E-02
  0.25351E-02  0.70698E-02  0.66578E-02  0.73826E-02  0.63694E-02  0.38532E-02
  0.64069E-03 -0.25603E-02 -0.53402E-02 -0.75392E-02 -0.92289E-02 -0.10412E-01
 -0.10689E-01 -0.96125E-02 -0.73162E-02 -0.44444E-02 -0.17195E-02  0.13419E-03
  0.42539E-03 -0.13511E-02 -0.55380E-02 -0.11821E-01 -0.18057E-01 -0.20743E-01
 -0.18057E-01 -0.11821E-01 -0.55380E-02 -0.13511E-02  0.42537E-03  0.13418E-03
 -0.17195E-02 -0.44444E-02 -0.73162E-02 -0.96126E-02 -0.10689E-01 -0.10412E-01
 -0.92290E-02 -0.75392E-02 -0.53403E-02 -0.25603E-02  0.64067E-03  0.38532E-02
  0.36469E-02  0.38845E-02  0.31969E-02  0.14691E-02 -0.98038E-03 -0.36107E-02
 -0.60985E-02 -0.84475E-02 -0.10680E-01 -0.12451E-01 -0.13038E-01 -0.11918E-01
 -0.92895E-02 -0.58170E-02 -0.21705E-02  0.89046E-03  0.25083E-02  0.21838E-02
 -0.72258E-04 -0.37848E-02 -0.75466E-02 -0.91816E-02 -0.75467E-02 -0.37849E-02
 -0.72282E-04  0.21838E-02  0.25082E-02  0.89045E-03 -0.21705E-02 -0.58170E-02
 -0.92896E-02 -0.11918E-01 -0.13038E-01 -0.12451E-01 -0.10680E-01 -0.84475E-02
 -0.60985E-02 -0.36107E-02 -0.98040E-03  0.14691E-02  0.19694E-02  0.20220E-02
  0.14085E-02 -0.44214E-04 -0.21165E-02 -0.44666E-02 -0.70593E-02 -0.99820E-02
 -0.13040E-01 -0.15651E-01 -0.16912E-01 -0.16009E-01 -0.12906E-01 -0.83975E-02
 -0.34462E-02  0.10905E-02  0.43339E-02  0.57145E-02  0.53781E-02  0.39996E-02
  0.24975E-02  0.18431E-02  0.24975E-02  0.39995E-02  0.53781E-02  0.57145E-02
  0.43339E-02  0.10905E-02 -0.34462E-02 -0.83975E-02 -0.12906E-01 -0.16009E-01
 -0.16912E-01 -0.15651E-01 -0.13040E-01 -0.99820E-02 -0.70593E-02 -0.44666E-02
 -0.21166E-02 -0.44230E-04  0.96204E-03  0.93402E-03  0.34451E-03 -0.91648E-03
 -0.27375E-02 -0.50617E-02 -0.80050E-02 -0.11593E-01 -0.15748E-01 -0.20138E-01
 -0.23413E-01 -0.23417E-01 -0.19254E-01 -0.12476E-01 -0.54748E-02  0.44084E-03
  0.49506E-02  0.79430E-02  0.95436E-02  0.10237E-01  0.10510E-01  0.10586E-01
  0.10510E-01  0.10237E-01  0.95435E-02  0.79430E-02  0.49506E-02  0.44082E-03
 -0.54748E-02 -0.12476E-01 -0.19254E-01 -0.23417E-01 -0.23413E-01 -0.20138E-01
 -0.15748E-01 -0.11593E-01 -0.80050E-02 -0.50617E-02 -0.27375E-02 -0.91650E-03
  0.31796E-03  0.24917E-03 -0.26705E-03 -0.12815E-02 -0.28488E-02 -0.51183E-02
 -0.82043E-02 -0.12322E-01 -0.18190E-01 -0.26002E-01 -0.33158E-01 -0.34898E-01
 -0.28965E-01 -0.18384E-01 -0.81893E-02 -0.78378E-03  0.43920E-02  0.83816E-02
  0.11577E-01  0.14080E-01  0.15822E-01  0.16473E-01  0.15822E-01  0.14080E-01
  0.11577E-01  0.83815E-02  0.43919E-02 -0.78380E-03 -0.81894E-02 -0.18384E-01
 -0.28965E-01 -0.34898E-01 -0.33158E-01 -0.26002E-01 -0.18190E-01 -0.12322E-01
 -0.82043E-02 -0.51183E-02 -0.28489E-02 -0.12816E-02 -0.33655E-04 -0.90260E-04
 -0.48031E-03 -0.12193E-02 -0.24399E-02 -0.43261E-02 -0.70047E-02 -0.11122E-01
 -0.18254E-01 -0.28850E-01 -0.39106E-01 -0.42315E-01 -0.35343E-01 -0.22253E-01
 -0.99503E-02 -0.17957E-02  0.32332E-02  0.71138E-02  0.10652E-01  0.13776E-01
  0.16068E-01  0.16936E-01  0.16068E-01  0.13776E-01  0.10652E-01  0.71138E-02
  0.32332E-02 -0.17957E-02 -0.99503E-02 -0.22253E-01 -0.35343E-01 -0.42315E-01
 -0.39106E-01 -0.28850E-01 -0.18254E-01 -0.11122E-01 -0.70047E-02 -0.43261E-02
 -0.24399E-02 -0.12193E-02 -0.11674E-03 -0.13749E-03 -0.35198E-03 -0.75970E-03
 -0.14515E-02 -0.25346E-02 -0.41292E-02 -0.69026E-02 -0.12237E-01 -0.20445E-01
 -0.28471E-01 -0.31152E-01 -0.26127E-01 -0.16460E-01 -0.73967E-02 -0.15737E-02
  0.17522E-02  0.41923E-02  0.64772E-02  0.85680E-02  0.10125E-01  0.10716E-01
  0.10125E-01  0.85679E-02  0.64772E-02  0.41923E-02  0.17522E-02 -0.15737E-02
 -0.73967E-02 -0.16460E-01 -0.26127E-01 -0.31152E-01 -0.28471E-01 -0.20445E-01
 -0.12237E-01 -0.69026E-02 -0.41292E-02 -0.25346E-02 -0.14515E-02 -0.75972E-03
 -0.53906E-08  0.96523E-09  0.70725E-08  0.96844E-08  0.94098E-08  0.80366E-08
  0.55886E-08  0.10653E-08 -0.62834E-08 -0.15795E-07 -0.23150E-07 -0.22283E-07
 -0.13041E-07 -0.28554E-08  0.24863E-08  0.45923E-08  0.69990E-08  0.10558E-07
  0.15086E-07  0.18774E-07  0.17097E-07  0.87721E-08 -0.36725E-09 -0.47654E-08
 -0.55560E-08 -0.60936E-08 -0.73348E-08 -0.94449E-08 -0.11538E-07 -0.10114E-07
 -0.38893E-08  0.20513E-08  0.24237E-08 -0.14421E-08 -0.51830E-08 -0.72408E-08
 -0.80491E-08 -0.81431E-08 -0.85340E-08 -0.85454E-08  0.11673E-03  0.13749E-03
  0.35199E-03  0.75972E-03  0.14515E-02  0.25346E-02  0.41292E-02  0.69026E-02
  0.12237E-01  0.20445E-01  0.28471E-01  0.31152E-01  0.26127E-01  0.16460E-01
  0.73967E-02  0.15737E-02 -0.17522E-02 -0.41923E-02 -0.64772E-02 -0.85679E-02
 -0.10125E-01 -0.10716E-01 -0.10125E-01 -0.85679E-02 -0.64772E-02 -0.41923E-02
 -0.17522E-02  0.15737E-02  0.73967E-02  0.16460E-01  0.26127E-01  0.31152E-01
  0.28471E-01  0.20445E-01  0.12237E-01  0.69026E-02  0.41292E-02  0.25346E-02
  0.14515E-02  0.75970E-03  0.33650E-04  0.90263E-04  0.48032E-03  0.12193E-02
  0.24399E-02  0.43261E-02  0.70047E-02  0.11122E-01  0.18254E-01  0.28850E-01
  0.39106E-01  0.42315E-01  0.35343E-01  0.22253E-01  0.99503E-02  0.17957E-02
 -0.32332E-02 -0.71138E-02 -0.10652E-01 -0.13776E-01 -0.16068E-01 -0.16936E-01
 -0.16068E-01 -0.13776E-01 -0.10652E-01 -0.71138E-02 -0.32332E-02  0.17957E-02
  0.99503E-02  0.22253E-01  0.35343E-01  0.42315E-01  0.39106E-01  0.28850E-01
  0.18254E-01  0.11122E-01  0.70047E-02  0.43261E-02  0.24399E-02  0.12193E-02
 -0.31796E-03 -0.24917E-03  0.26706E-03  0.12816E-02  0.28489E-02  0.51183E-02
  0.82043E-02  0.12322E-01  0.18190E-01  0.26002E-01  0.33158E-01  0.34898E-01
  0.28965E-01  0.18384E-01  0.81894E-02  0.78379E-03 -0.43919E-02 -0.83815E-02
 -0.11577E-01 -0.14080E-01 -0.15822E-01 -0.16473E-01 -0.15822E-01 -0.14080E-01
 -0.11577E-01 -0.83815E-02 -0.43919E-02  0.78378E-03  0.81894E-02  0.18384E-01
  0.28965E-01  0.34898E-01  0.33158E-01  0.26002E-01  0.18190E-01  0.12322E-01
  0.82043E-02  0.51183E-02  0.28488E-02  0.12816E-02 -0.96205E-03 -0.93402E-03
 -0.34450E-03  0.91650E-03  0.27375E-02  0.50617E-02  0.80050E-02  0.11593E-01
  0.15748E-01  0.20138E-01  0.23413E-01  0.23417E-01  0.19254E-01  0.12476E-01
  0.54748E-02 -0.44082E-03 -0.49506E-02 -0.79430E-02 -0.95435E-02 -0.10237E-01
 -0.10510E-01 -0.10586E-01 -0.10510E-01 -0.10237E-01 -0.95436E-02 -0.79430E-02
 -0.49506E-02 -0.44084E-03  0.54748E-02  0.12476E-01  0.19254E-01  0.23417E-01
  0.23413E-01  0.20138E-01  0.15748E-01  0.11593E-01  0.80050E-02  0.50617E-02
  0.27375E-02  0.91649E-03 -0.19694E-02 -0.20220E-02 -0.14084E-02  0.44232E-04
  0.21166E-02  0.44666E-02  0.70593E-02  0.99820E-02  0.13040E-01  0.15651E-01
  0.16912E-01  0.16009E-01  0.12906E-01  0.83975E-02  0.34462E-02 -0.10905E-02
 -0.43339E-02 -0.57145E-02 -0.53781E-02 -0.39995E-02 -0.24975E-02 -0.18431E-02
 -0.24975E-02 -0.39996E-02 -0.53781E-02 -0.57145E-02 -0.43339E-02 -0.10905E-02
  0.34462E-02  0.83975E-02  0.12906E-01  0.16009E-01  0.16912E-01  0.15651E-01
  0.13040E-01  0.99820E-02  0.70593E-02  0.44666E-02  0.21165E-02  0.44215E-04
 -0.36469E-02 -0.38845E-02 -0.31969E-02 -0.14691E-02  0.98040E-03  0.36107E-02
  0.60985E-02  0.84475E-02  0.10680E-01  0.12451E-01  0.13038E-01  0.11918E-01
  0.92895E-02  0.58170E-02  0.21705E-02 -0.89044E-03 -0.25082E-02 -0.21838E-02
  0.72280E-04  0.37849E-02  0.75467E-02  0.91816E-02  0.75467E-02  0.37848E-02
  0.72260E-04 -0.21838E-02 -0.25083E-02 -0.89047E-03  0.21705E-02  0.58170E-02
  0.92895E-02  0.11918E-01  0.13038E-01  0.12451E-01  0.10680E-01  0.84475E-02
  0.60985E-02  0.36107E-02  0.98038E-03 -0.14691E-02 -0.66578E-02 -0.73826E-02
 -0.63694E-02 -0.38532E-02 -0.64067E-03  0.25603E-02  0.53403E-02  0.75392E-02
  0.92290E-02  0.10412E-01  0.10689E-01  0.96126E-02  0.73162E-02  0.44444E-02
  0.17195E-02 -0.13418E-03 -0.42537E-03  0.13511E-02  0.55380E-02  0.11821E-01
  0.18057E-01  0.20743E-01  0.18057E-01  0.11821E-01  0.55380E-02  0.13511E-02
 -0.42540E-03 -0.13421E-03  0.17195E-02  0.44444E-02  0.73162E-02  0.96126E-02
  0.10689E-01  0.10412E-01  0.92289E-02  0.75392E-02  0.53402E-02  0.25603E-02
 -0.64069E-03 -0.38532E-02 -0.11141E-01 -0.12748E-01 -0.11115E-01 -0.70698E-02
 -0.25351E-02  0.13853E-02  0.45599E-02  0.69863E-02  0.86478E-02  0.96324E-02
  0.98253E-02  0.89074E-02  0.68952E-02  0.43260E-02  0.19442E-02  0.50957E-03
  0.73440E-03  0.31359E-02  0.78731E-02  0.14273E-01  0.20184E-01  0.22640E-01
  0.20184E-01  0.14273E-01  0.78731E-02  0.31359E-02  0.73438E-03  0.50955E-03
  0.19442E-02  0.43260E-02  0.68952E-02  0.89074E-02  0.98253E-02  0.96324E-02
  0.86478E-02  0.69863E-02  0.45599E-02  0.13853E-02 -0.25351E-02 -0.70698E-02
 -0.15445E-01 -0.18011E-01 -0.15809E-01 -0.10120E-01 -0.41114E-02  0.48084E-03
  0.38643E-02  0.64919E-02  0.83589E-02  0.94458E-02  0.97377E-02  0.90333E-02
  0.72810E-02  0.48687E-02  0.24421E-02  0.75967E-03  0.54931E-03  0.18325E-02
  0.34227E-02  0.38742E-02  0.31414E-02  0.26055E-02  0.31414E-02  0.38742E-02
  0.34227E-02  0.18325E-02  0.54930E-03  0.75966E-03  0.24421E-02  0.48687E-02
  0.72810E-02  0.90333E-02  0.97377E-02  0.94458E-02  0.83589E-02  0.64919E-02
  0.38643E-02  0.48084E-03 -0.41114E-02 -0.10120E-01 -0.16910E-01 -0.19916E-01
 -0.17647E-01 -0.11351E-01 -0.46772E-02  0.19736E-03  0.35555E-02  0.61656E-02
  0.81133E-02  0.92837E-02  0.96525E-02  0.91020E-02  0.76068E-02  0.54471E-02
  0.30209E-02  0.85505E-03 -0.51725E-03 -0.19447E-02 -0.65268E-02 -0.16462E-01
 -0.28179E-01 -0.33554E-01 -0.28179E-01 -0.16462E-01 -0.65268E-02 -0.19447E-02
 -0.51724E-03  0.85505E-03  0.30209E-02  0.54471E-02  0.76068E-02  0.91020E-02
  0.96526E-02  0.92837E-02  0.81133E-02  0.61656E-02  0.35555E-02  0.19737E-03
 -0.46772E-02 -0.11351E-01 -0.14590E-01 -0.17198E-01 -0.15405E-01 -0.10019E-01
 -0.40905E-02  0.34539E-03  0.34264E-02  0.58705E-02  0.77880E-02  0.90095E-02
  0.94301E-02  0.89374E-02  0.75914E-02  0.56847E-02  0.33720E-02  0.78710E-03
 -0.18007E-02 -0.56632E-02 -0.14913E-01 -0.32157E-01 -0.51447E-01 -0.60144E-01
 -0.51447E-01 -0.32157E-01 -0.14913E-01 -0.56631E-02 -0.18007E-02  0.78712E-03
  0.33721E-02  0.56847E-02  0.75914E-02  0.89375E-02  0.94301E-02  0.90095E-02
  0.77880E-02  0.58706E-02  0.34265E-02  0.34542E-03 -0.40905E-02 -0.10019E-01
 -0.10272E-01 -0.11952E-01 -0.10811E-01 -0.71778E-02 -0.29354E-02  0.49629E-03
  0.30818E-02  0.52496E-02  0.70616E-02  0.83459E-02  0.88930E-02  0.84806E-02
  0.71685E-02  0.53320E-02  0.30836E-02  0.27280E-03 -0.29997E-02 -0.75879E-02
 -0.16870E-01 -0.33253E-01 -0.51423E-01 -0.59619E-01 -0.51423E-01 -0.33253E-01
 -0.16870E-01 -0.75878E-02 -0.29997E-02  0.27283E-03  0.30837E-02  0.53320E-02
  0.71685E-02  0.84806E-02  0.88931E-02  0.83460E-02  0.70617E-02  0.52496E-02
  0.30819E-02  0.49633E-03 -0.29354E-02 -0.71778E-02 -0.64158E-02 -0.72393E-02
 -0.65991E-02 -0.45740E-02 -0.19899E-02  0.41699E-03  0.24610E-02  0.42153E-02
  0.57010E-02  0.68728E-02  0.75513E-02  0.73980E-02  0.62890E-02  0.45310E-02
  0.23340E-02 -0.48178E-03 -0.39254E-02 -0.81364E-02 -0.14671E-01 -0.25016E-01
 -0.36276E-01 -0.41358E-01 -0.36276E-01 -0.25016E-01 -0.14671E-01 -0.81363E-02
 -0.39253E-02 -0.48174E-03  0.23341E-02  0.45310E-02  0.62890E-02  0.73981E-02
  0.75513E-02  0.68729E-02  0.57010E-02  0.42153E-02  0.24611E-02  0.41703E-03
 -0.19899E-02 -0.45739E-02 -0.40138E-02 -0.43732E-02 -0.40254E-02 -0.30359E-02
 -0.16097E-02 -0.15447E-04  0.14536E-02  0.26239E-02  0.35395E-02  0.43462E-02
  0.50400E-02  0.53176E-02  0.48120E-02  0.35024E-02  0.15925E-02 -0.94032E-03
 -0.41662E-02 -0.78806E-02 -0.12127E-01 -0.17218E-01 -0.22169E-01 -0.24338E-01
 -0.22169E-01 -0.17218E-01 -0.12127E-01 -0.78805E-02 -0.41661E-02 -0.94027E-03
  0.15925E-02  0.35025E-02  0.48121E-02  0.53176E-02  0.50401E-02  0.43462E-02
  0.35395E-02  0.26239E-02  0.14536E-02 -0.15407E-04 -0.16096E-02 -0.30359E-02
 -0.26944E-02 -0.29260E-02 -0.27486E-02 -0.23096E-02 -0.16389E-02 -0.84835E-03
 -0.21099E-03  0.15819E-03  0.40496E-03  0.73231E-03  0.12938E-02  0.20200E-02
  0.24370E-02  0.20433E-02  0.79948E-03 -0.11205E-02 -0.36683E-02 -0.66223E-02
 -0.94849E-02 -0.11915E-01 -0.13696E-01 -0.14387E-01 -0.13696E-01 -0.11915E-01
 -0.94849E-02 -0.66223E-02 -0.36683E-02 -0.11204E-02  0.79952E-03  0.20434E-02
  0.24370E-02  0.20200E-02  0.12938E-02  0.73234E-03  0.40500E-03  0.15823E-03
 -0.21095E-03 -0.84831E-03 -0.16389E-02 -0.23096E-02 -0.18466E-02 -0.21411E-02
 -0.21265E-02 -0.19752E-02 -0.18343E-02 -0.19296E-02 -0.24080E-02 -0.31027E-02
 -0.37835E-02 -0.42550E-02 -0.40226E-02 -0.26933E-02 -0.90346E-03  0.88614E-04
 -0.22577E-03 -0.14598E-02 -0.31769E-02 -0.50065E-02 -0.64155E-02 -0.71151E-02
 -0.73266E-02 -0.73633E-02 -0.73266E-02 -0.71151E-02 -0.64155E-02 -0.50065E-02
 -0.31768E-02 -0.14598E-02 -0.22573E-03  0.88649E-04 -0.90343E-03 -0.26932E-02
 -0.40225E-02 -0.42550E-02 -0.37835E-02 -0.31026E-02 -0.24080E-02 -0.19296E-02
 -0.18343E-02 -0.19752E-02 -0.11709E-02 -0.15875E-02 -0.17814E-02 -0.18662E-02
 -0.21588E-02 -0.30739E-02 -0.46783E-02 -0.67402E-02 -0.91522E-02 -0.11332E-01
 -0.11588E-01 -0.87985E-02 -0.44842E-02 -0.14772E-02 -0.88910E-03 -0.18367E-02
 -0.32341E-02 -0.43374E-02 -0.44746E-02 -0.35812E-02 -0.24596E-02 -0.19814E-02
 -0.24596E-02 -0.35812E-02 -0.44746E-02 -0.43374E-02 -0.32341E-02 -0.18366E-02
 -0.88908E-03 -0.14772E-02 -0.44842E-02 -0.87985E-02 -0.11588E-01 -0.11332E-01
 -0.91521E-02 -0.67402E-02 -0.46783E-02 -0.30739E-02 -0.21587E-02 -0.18662E-02
 -0.72189E-03 -0.11685E-02 -0.14981E-02 -0.18285E-02 -0.25668E-02 -0.41623E-02
 -0.66832E-02 -0.10279E-01 -0.15191E-01 -0.19794E-01 -0.20203E-01 -0.14548E-01
 -0.63856E-02 -0.10713E-02 -0.14157E-03 -0.15553E-02 -0.33608E-02 -0.45773E-02
 -0.43530E-02 -0.26096E-02 -0.58857E-03  0.26920E-03 -0.58857E-03 -0.26096E-02
 -0.43531E-02 -0.45774E-02 -0.33608E-02 -0.15553E-02 -0.14156E-03 -0.10713E-02
 -0.63856E-02 -0.14548E-01 -0.20203E-01 -0.19794E-01 -0.15191E-01 -0.10279E-01
 -0.66832E-02 -0.41622E-02 -0.25668E-02 -0.18285E-02  0.11648E-02  0.14599E-02
  0.14613E-02  0.16626E-02  0.27420E-02  0.49900E-02  0.82469E-02  0.13021E-01
  0.19681E-01  0.24900E-01  0.22457E-01  0.11176E-01 -0.13076E-02 -0.67139E-02
 -0.48079E-02 -0.64616E-03  0.26848E-02  0.48167E-02  0.53013E-02  0.39035E-02
  0.18854E-02  0.97634E-03  0.18854E-02  0.39035E-02  0.53013E-02  0.48168E-02
  0.26848E-02 -0.64614E-03 -0.48079E-02 -0.67139E-02 -0.13076E-02  0.11176E-01
  0.22457E-01  0.24900E-01  0.19681E-01  0.13021E-01  0.82469E-02  0.49900E-02
  0.27420E-02  0.16627E-02  0.79524E-03  0.12043E-02  0.14736E-02  0.19460E-02
  0.32221E-02  0.56581E-02  0.93537E-02  0.15360E-01  0.24487E-01  0.32815E-01
  0.32309E-01  0.20287E-01  0.48725E-02 -0.36333E-02 -0.35053E-02  0.16097E-03
  0.35408E-02  0.58145E-02  0.64272E-02  0.51041E-02  0.30948E-02  0.21770E-02
  0.30948E-02  0.51041E-02  0.64273E-02  0.58145E-02  0.35408E-02  0.16099E-03
 -0.35052E-02 -0.36333E-02  0.48725E-02  0.20287E-01  0.32309E-01  0.32815E-01
  0.24487E-01  0.15360E-01  0.93537E-02  0.56581E-02  0.32222E-02  0.19460E-02
  0.63406E-03  0.12539E-02  0.17428E-02  0.22221E-02  0.32773E-02  0.54506E-02
  0.89546E-02  0.14709E-01  0.23573E-01  0.32301E-01  0.33481E-01  0.23761E-01
  0.95914E-02  0.44147E-03 -0.10946E-02  0.12099E-02  0.39438E-02  0.59622E-02
  0.64547E-02  0.51279E-02  0.31931E-02  0.23187E-02  0.31931E-02  0.51280E-02
  0.64547E-02  0.59622E-02  0.39438E-02  0.12099E-02 -0.10945E-02  0.44150E-03
  0.95914E-02  0.23761E-01  0.33481E-01  0.32301E-01  0.23573E-01  0.14709E-01
  0.89546E-02  0.54506E-02  0.32774E-02  0.22221E-02  0.90161E-03  0.16207E-02
  0.20541E-02  0.22675E-02  0.28597E-02  0.44584E-02  0.71685E-02  0.11273E-01
  0.17292E-01  0.23449E-01  0.24919E-01  0.18902E-01  0.91528E-02  0.21596E-02
  0.28054E-03  0.14394E-02  0.33555E-02  0.49234E-02  0.52445E-02  0.40808E-02
  0.24811E-02  0.17740E-02  0.24811E-02  0.40808E-02  0.52445E-02  0.49234E-02
  0.33556E-02  0.14394E-02  0.28056E-03  0.21597E-02  0.91528E-02  0.18902E-01
  0.24919E-01  0.23449E-01  0.17292E-01  0.11273E-01  0.71685E-02  0.44585E-02
  0.28597E-02  0.22675E-02  0.13697E-02  0.19321E-02  0.21039E-02  0.20391E-02
  0.21862E-02  0.30175E-02  0.45639E-02  0.66518E-02  0.93593E-02  0.12075E-01
  0.12659E-01  0.95604E-02  0.44385E-02  0.66290E-03 -0.33067E-03  0.52837E-03
  0.20531E-02  0.34805E-02  0.40678E-02  0.35990E-02  0.27587E-02  0.23764E-02
  0.27587E-02  0.35990E-02  0.40678E-02  0.34806E-02  0.20531E-02  0.52838E-03
 -0.33067E-03  0.66290E-03  0.44385E-02  0.95604E-02  0.12659E-01  0.12075E-01
  0.93593E-02  0.66518E-02  0.45639E-02  0.30175E-02  0.21862E-02  0.20391E-02
  0.17137E-02  0.20369E-02  0.19984E-02  0.17625E-02  0.14784E-02  0.13839E-02
  0.16398E-02  0.21188E-02  0.26404E-02  0.29805E-02  0.25426E-02  0.90712E-03
 -0.11773E-02 -0.23406E-02 -0.20814E-02 -0.85393E-03  0.86110E-03  0.26536E-02
  0.39442E-02  0.44526E-02  0.44847E-02  0.44487E-02  0.44847E-02  0.44527E-02
  0.39442E-02  0.26536E-02  0.86111E-03 -0.85393E-03 -0.20814E-02 -0.23406E-02
 -0.11773E-02  0.90711E-03  0.25426E-02  0.29805E-02  0.26404E-02  0.21189E-02
  0.16398E-02  0.13839E-02  0.14784E-02  0.17625E-02  0.19584E-02  0.21959E-02
  0.20677E-02  0.15968E-02  0.77928E-03 -0.21455E-03 -0.10887E-02 -0.17699E-02
 -0.24358E-02 -0.32436E-02 -0.42127E-02 -0.51470E-02 -0.55859E-02 -0.51604E-02
 -0.39513E-02 -0.22191E-02 -0.11561E-03  0.20704E-02  0.38970E-02  0.52089E-02
  0.60874E-02  0.64257E-02  0.60874E-02  0.52090E-02  0.38970E-02  0.20704E-02
 -0.11561E-03 -0.22191E-02 -0.39513E-02 -0.51604E-02 -0.55859E-02 -0.51470E-02
 -0.42127E-02 -0.32436E-02 -0.24358E-02 -0.17699E-02 -0.10887E-02 -0.21453E-03
  0.77930E-03  0.15968E-02  0.23342E-02  0.26828E-02  0.24738E-02  0.15759E-02
  0.16976E-03 -0.14410E-02 -0.30581E-02 -0.46333E-02 -0.61711E-02 -0.75996E-02
 -0.86857E-02 -0.90866E-02 -0.85994E-02 -0.73638E-02 -0.56599E-02 -0.36127E-02
 -0.13652E-02  0.77823E-03  0.28444E-02  0.52593E-02  0.77320E-02  0.88525E-02
  0.77320E-02  0.52594E-02  0.28445E-02  0.77823E-03 -0.13652E-02 -0.36127E-02
 -0.56599E-02 -0.73638E-02 -0.85994E-02 -0.90866E-02 -0.86857E-02 -0.75996E-02
 -0.61711E-02 -0.46333E-02 -0.30581E-02 -0.14410E-02  0.16977E-03  0.15759E-02
  0.30463E-02  0.36914E-02  0.33747E-02  0.19110E-02 -0.10007E-03 -0.21321E-02
 -0.42132E-02 -0.64561E-02 -0.86578E-02 -0.10452E-01 -0.11495E-01 -0.11538E-01
 -0.10618E-01 -0.90633E-02 -0.71401E-02 -0.49933E-02 -0.29920E-02 -0.13435E-02
  0.83895E-03  0.47458E-02  0.94130E-02  0.11601E-01  0.94130E-02  0.47458E-02
  0.83896E-03 -0.13435E-02 -0.29920E-02 -0.49933E-02 -0.71401E-02 -0.90632E-02
 -0.10618E-01 -0.11538E-01 -0.11495E-01 -0.10452E-01 -0.86578E-02 -0.64561E-02
 -0.42132E-02 -0.21321E-02 -0.10006E-03  0.19111E-02  0.43052E-02  0.54576E-02
  0.50252E-02  0.28861E-02  0.13910E-03 -0.24227E-02 -0.49356E-02 -0.75832E-02
 -0.10048E-01 -0.11891E-01 -0.12836E-01 -0.12741E-01 -0.11692E-01 -0.99945E-02
 -0.79596E-02 -0.60080E-02 -0.48152E-02 -0.45006E-02 -0.37238E-02 -0.93289E-03
  0.30192E-02  0.49534E-02  0.30192E-02 -0.93285E-03 -0.37237E-02 -0.45006E-02
 -0.48152E-02 -0.60080E-02 -0.79596E-02 -0.99945E-02 -0.11692E-01 -0.12741E-01
 -0.12836E-01 -0.11891E-01 -0.10048E-01 -0.75832E-02 -0.49356E-02 -0.24227E-02
  0.13910E-03  0.28861E-02  0.59971E-02  0.77247E-02  0.71339E-02  0.42782E-02
  0.74105E-03 -0.24161E-02 -0.53006E-02 -0.80970E-02 -0.10522E-01 -0.12245E-01
 -0.13074E-01 -0.12857E-01 -0.11626E-01 -0.97153E-02 -0.76950E-02 -0.63903E-02
 -0.67612E-02 -0.93181E-02 -0.13605E-01 -0.18346E-01 -0.22014E-01 -0.23393E-01
 -0.22014E-01 -0.18346E-01 -0.13605E-01 -0.93181E-02 -0.67612E-02 -0.63903E-02
 -0.76950E-02 -0.97153E-02 -0.11626E-01 -0.12857E-01 -0.13074E-01 -0.12245E-01
 -0.10522E-01 -0.80970E-02 -0.53006E-02 -0.24161E-02  0.74105E-03  0.42782E-02
  0.72248E-02  0.92445E-02  0.84935E-02  0.52238E-02  0.12639E-02 -0.22108E-02
 -0.52411E-02 -0.80029E-02 -0.10319E-01 -0.11944E-01 -0.12629E-01 -0.12148E-01
 -0.10581E-01 -0.84427E-02 -0.66094E-02 -0.61820E-02 -0.83358E-02 -0.14487E-01
 -0.26161E-01 -0.42769E-01 -0.58750E-01 -0.65515E-01 -0.58750E-01 -0.42769E-01
 -0.26161E-01 -0.14487E-01 -0.83358E-02 -0.61820E-02 -0.66095E-02 -0.84427E-02
 -0.10581E-01 -0.12148E-01 -0.12629E-01 -0.11944E-01 -0.10319E-01 -0.80029E-02
 -0.52411E-02 -0.22108E-02  0.12639E-02  0.52238E-02  0.69547E-02  0.87608E-02
  0.80004E-02  0.49587E-02  0.12187E-02 -0.21710E-02 -0.51136E-02 -0.76921E-02
 -0.98204E-02 -0.11288E-01 -0.11739E-01 -0.10927E-01 -0.90831E-02 -0.68767E-02
 -0.52614E-02 -0.53615E-02 -0.84146E-02 -0.16502E-01 -0.32715E-01 -0.57199E-01
 -0.81653E-01 -0.92180E-01 -0.81653E-01 -0.57199E-01 -0.32716E-01 -0.16502E-01
 -0.84146E-02 -0.53615E-02 -0.52615E-02 -0.68767E-02 -0.90831E-02 -0.10927E-01
 -0.11739E-01 -0.11288E-01 -0.98204E-02 -0.76921E-02 -0.51136E-02 -0.21710E-02
  0.12187E-02  0.49587E-02  0.52758E-02  0.65189E-02  0.59251E-02  0.35820E-02
  0.47705E-03 -0.25590E-02 -0.52273E-02 -0.74938E-02 -0.93575E-02 -0.10622E-01
 -0.10837E-01 -0.97657E-02 -0.77573E-02 -0.54772E-02 -0.37481E-02 -0.36206E-02
 -0.62608E-02 -0.13520E-01 -0.28362E-01 -0.51274E-01 -0.74557E-01 -0.84670E-01
 -0.74557E-01 -0.51274E-01 -0.28362E-01 -0.13520E-01 -0.62608E-02 -0.36206E-02
 -0.37482E-02 -0.54773E-02 -0.77573E-02 -0.97658E-02 -0.10837E-01 -0.10623E-01
 -0.93576E-02 -0.74938E-02 -0.52273E-02 -0.25590E-02  0.47703E-03  0.35820E-02
  0.32967E-02  0.39885E-02  0.35655E-02  0.18664E-02 -0.60236E-03 -0.31561E-02
 -0.54616E-02 -0.75471E-02 -0.94351E-02 -0.10782E-01 -0.10976E-01 -0.97510E-02
 -0.74732E-02 -0.47341E-02 -0.22312E-02 -0.10541E-02 -0.23972E-02 -0.73799E-02
 -0.17468E-01 -0.32782E-01 -0.48331E-01 -0.55106E-01 -0.48331E-01 -0.32782E-01
 -0.17468E-01 -0.73799E-02 -0.23972E-02 -0.10541E-02 -0.22312E-02 -0.47341E-02
 -0.74732E-02 -0.97510E-02 -0.10976E-01 -0.10782E-01 -0.94352E-02 -0.75472E-02
 -0.54616E-02 -0.31562E-02 -0.60238E-03  0.18663E-02  0.18195E-02  0.21907E-02
  0.18286E-02  0.45686E-03 -0.15723E-02 -0.37115E-02 -0.58809E-02 -0.82588E-02
 -0.10669E-01 -0.12463E-01 -0.12891E-01 -0.11607E-01 -0.88765E-02 -0.52607E-02