       #
       # Generated by the Wannier90 code http://www.wannier.org
       # On 23Sep2015 at 16:17:37 
       #
CRYSTAL
PRIMVEC
   3.8425000   0.0000000   0.0000000
   0.0000000   3.8425000   0.0000000
   0.0000000   0.0000000   3.8425000
CONVVEC
   3.8425000   0.0000000   0.0000000
   0.0000000   3.8425000   0.0000000
   0.0000000   0.0000000   3.8425000
PRIMCOORD
     5  1
V       0.0000000   0.0000000   0.0000000
Sr      1.9212500   1.9212500   1.9212500
O       1.9212500   0.0000000   0.0000000
O       0.0000000   1.9212500   0.0000000
O       0.0000000   0.0000000   1.9212500


BEGIN_BLOCK_DATAGRID_3D
3D_field
BEGIN_DATAGRID_3D_UNKNOWN
    40    40    40
   -4.034625   -4.034625   -4.034625
   7.4928749   0.0000000   0.0000000
   0.0000000   7.4928749   0.0000000
   0.0000000   0.0000000   7.4928749
  0.72415E-03  0.56332E-03  0.20421E-03 -0.19588E-03 -0.50958E-03 -0.58425E-03
 -0.32902E-03  0.11344E-03  0.35888E-03 -0.60961E-04 -0.13017E-02 -0.27966E-02
 -0.35982E-02 -0.33593E-02 -0.26336E-02 -0.20922E-02 -0.18358E-02 -0.15659E-02
 -0.10796E-02 -0.45718E-03  0.61002E-04  0.26052E-03  0.60984E-04 -0.45721E-03
 -0.10796E-02 -0.15659E-02 -0.18358E-02 -0.20922E-02 -0.26336E-02 -0.33593E-02
 -0.35982E-02 -0.27966E-02 -0.13017E-02 -0.60941E-04  0.35888E-03  0.11343E-03
 -0.32904E-03 -0.58427E-03 -0.50959E-03 -0.19587E-03  0.48065E-03  0.23381E-03
 -0.18693E-03 -0.53928E-03 -0.66961E-03 -0.50829E-03 -0.10786E-03  0.31178E-03
  0.40776E-03 -0.21372E-03 -0.16685E-02 -0.33289E-02 -0.41474E-02 -0.37601E-02
 -0.28385E-02 -0.21714E-02 -0.18835E-02 -0.16725E-02 -0.13247E-02 -0.84615E-03
 -0.39921E-03 -0.21209E-03 -0.39924E-03 -0.84618E-03 -0.13247E-02 -0.16725E-02
 -0.18835E-02 -0.21714E-02 -0.28386E-02 -0.37601E-02 -0.41474E-02 -0.33288E-02
 -0.16684E-02 -0.21370E-03  0.40777E-03  0.31177E-03 -0.10788E-03 -0.50831E-03
 -0.66961E-03 -0.53927E-03  0.10690E-03 -0.40124E-04 -0.29889E-03 -0.50389E-03
 -0.50870E-03 -0.28246E-03  0.38331E-04  0.24901E-03  0.17234E-03 -0.41327E-03
 -0.16019E-02 -0.29101E-02 -0.34860E-02 -0.30608E-02 -0.22375E-02 -0.16712E-02
 -0.14480E-02 -0.13439E-02 -0.12041E-02 -0.97760E-03 -0.71899E-03 -0.59787E-03
 -0.71901E-03 -0.97763E-03 -0.12041E-02 -0.13439E-02 -0.14480E-02 -0.16712E-02
 -0.22375E-02 -0.30608E-02 -0.34860E-02 -0.29100E-02 -0.16018E-02 -0.41326E-03
  0.17233E-03  0.24900E-03  0.38318E-04 -0.28247E-03 -0.50870E-03 -0.50388E-03
 -0.19791E-03 -0.18031E-03 -0.20423E-03 -0.26473E-03 -0.26863E-03 -0.18016E-03
 -0.10705E-03 -0.16032E-03 -0.36080E-03 -0.77338E-03 -0.14502E-02 -0.21110E-02
 -0.22723E-02 -0.18573E-02 -0.13064E-02 -0.10135E-02 -0.99824E-03 -0.11113E-02
 -0.12271E-02 -0.12546E-02 -0.11908E-02 -0.11449E-02 -0.11908E-02 -0.12546E-02
 -0.12271E-02 -0.11113E-02 -0.99824E-03 -0.10135E-02 -0.13064E-02 -0.18573E-02
 -0.22723E-02 -0.21110E-02 -0.14502E-02 -0.77339E-03 -0.36082E-03 -0.16034E-03
 -0.10707E-03 -0.18017E-03 -0.26863E-03 -0.26473E-03 -0.26294E-03 -0.13323E-03
 -0.12106E-04 -0.10412E-04 -0.10851E-03 -0.26166E-03 -0.47013E-03 -0.70659E-03
 -0.90960E-03 -0.10952E-02 -0.13037E-02 -0.14225E-02 -0.12922E-02 -0.97979E-03
 -0.73000E-03 -0.69703E-03 -0.87439E-03 -0.11734E-02 -0.14646E-02 -0.16467E-02
 -0.17172E-02 -0.17312E-02 -0.17172E-02 -0.16467E-02 -0.14646E-02 -0.11734E-02
 -0.87439E-03 -0.69703E-03 -0.73000E-03 -0.97979E-03 -0.12922E-02 -0.14225E-02
 -0.13037E-02 -0.10953E-02 -0.90962E-03 -0.70661E-03 -0.47015E-03 -0.26167E-03
 -0.10852E-03 -0.10415E-04 -0.23205E-03  0.19031E-04  0.18736E-03  0.14132E-03
 -0.10908E-03 -0.48399E-03 -0.87394E-03 -0.11490E-02 -0.12377E-02 -0.11954E-02
 -0.11094E-02 -0.98658E-03 -0.82659E-03 -0.69811E-03 -0.65758E-03 -0.72048E-03
 -0.92039E-03 -0.12478E-02 -0.15945E-02 -0.18737E-02 -0.20705E-02 -0.21482E-02
 -0.20705E-02 -0.18737E-02 -0.15945E-02 -0.12478E-02 -0.92040E-03 -0.72048E-03
 -0.65758E-03 -0.69811E-03 -0.82659E-03 -0.98658E-03 -0.11094E-02 -0.11954E-02
 -0.12377E-02 -0.11490E-02 -0.87397E-03 -0.48401E-03 -0.10909E-03  0.14132E-03
 -0.28842E-03  0.68696E-04  0.20368E-03  0.35177E-04 -0.35589E-03 -0.82763E-03
 -0.12400E-02 -0.14778E-02 -0.14968E-02 -0.13617E-02 -0.11799E-02 -0.10129E-02
 -0.89418E-03 -0.84529E-03 -0.84287E-03 -0.88631E-03 -0.10621E-02 -0.14147E-02
 -0.18611E-02 -0.23097E-02 -0.26844E-02 -0.28407E-02 -0.26844E-02 -0.23097E-02
 -0.18611E-02 -0.14147E-02 -0.10621E-02 -0.88631E-03 -0.84286E-03 -0.84528E-03
 -0.89417E-03 -0.10129E-02 -0.11799E-02 -0.13617E-02 -0.14968E-02 -0.14778E-02
 -0.12400E-02 -0.82765E-03 -0.35591E-03  0.35168E-04 -0.53707E-03 -0.18280E-03
 -0.67700E-04 -0.26056E-03 -0.66250E-03 -0.10954E-02 -0.14448E-02 -0.16773E-02
 -0.17672E-02 -0.17129E-02 -0.15702E-02 -0.13988E-02 -0.12332E-02 -0.11049E-02
 -0.10456E-02 -0.11132E-02 -0.14065E-02 -0.19735E-02 -0.27545E-02 -0.36283E-02
 -0.43793E-02 -0.46874E-02 -0.43793E-02 -0.36283E-02 -0.27545E-02 -0.19735E-02
 -0.14065E-02 -0.11132E-02 -0.10456E-02 -0.11049E-02 -0.12332E-02 -0.13988E-02
 -0.15702E-02 -0.17129E-02 -0.17673E-02 -0.16773E-02 -0.14448E-02 -0.10954E-02
 -0.66252E-03 -0.26057E-03 -0.12736E-02 -0.92537E-03 -0.58328E-03 -0.50283E-03
 -0.74081E-03 -0.11077E-02 -0.14475E-02 -0.17386E-02 -0.19431E-02 -0.19942E-02
 -0.18988E-02 -0.17111E-02 -0.14778E-02 -0.12723E-02 -0.12057E-02 -0.13885E-02
 -0.19228E-02 -0.29202E-02 -0.44759E-02 -0.64766E-02 -0.83225E-02 -0.90940E-02
 -0.83225E-02 -0.64766E-02 -0.44759E-02 -0.29202E-02 -0.19228E-02 -0.13885E-02
 -0.12057E-02 -0.12723E-02 -0.14778E-02 -0.17111E-02 -0.18987E-02 -0.19942E-02
 -0.19431E-02 -0.17386E-02 -0.14476E-02 -0.11077E-02 -0.74083E-03 -0.50285E-03
 -0.26976E-02 -0.21765E-02 -0.12791E-02 -0.67339E-03 -0.66583E-03 -0.10216E-02
 -0.14457E-02 -0.18322E-02 -0.21114E-02 -0.22003E-02 -0.20979E-02 -0.18711E-02
 -0.15961E-02 -0.13780E-02 -0.13626E-02 -0.16971E-02 -0.25499E-02 -0.42643E-02
 -0.73432E-02 -0.11759E-01 -0.16066E-01 -0.17904E-01 -0.16066E-01 -0.11759E-01
 -0.73432E-02 -0.42643E-02 -0.25499E-02 -0.16971E-02 -0.13626E-02 -0.13780E-02
 -0.15961E-02 -0.18711E-02 -0.20979E-02 -0.22003E-02 -0.21114E-02 -0.18322E-02
 -0.14457E-02 -0.10216E-02 -0.66584E-03 -0.67340E-03 -0.42595E-02 -0.34348E-02
 -0.19284E-02 -0.83052E-03 -0.61312E-03 -0.97536E-03 -0.15054E-02 -0.19994E-02
 -0.23398E-02 -0.24410E-02 -0.23007E-02 -0.19981E-02 -0.16532E-02 -0.14035E-02
 -0.14197E-02 -0.19148E-02 -0.31929E-02 -0.59310E-02 -0.11193E-01 -0.19086E-01
 -0.26968E-01 -0.30361E-01 -0.26968E-01 -0.19086E-01 -0.11193E-01 -0.59310E-02
 -0.31929E-02 -0.19148E-02 -0.14197E-02 -0.14035E-02 -0.16532E-02 -0.19981E-02
 -0.23007E-02 -0.24410E-02 -0.23398E-02 -0.19994E-02 -0.15054E-02 -0.97537E-03
 -0.61313E-03 -0.83053E-03 -0.49263E-02 -0.39067E-02 -0.21194E-02 -0.81993E-03
 -0.50314E-03 -0.87198E-03 -0.15006E-02 -0.20990E-02 -0.24804E-02 -0.25650E-02
 -0.23663E-02 -0.19768E-02 -0.15516E-02 -0.12506E-02 -0.12684E-02 -0.18998E-02
 -0.35719E-02 -0.71942E-02 -0.14255E-01 -0.25004E-01 -0.35845E-01 -0.40535E-01
 -0.35845E-01 -0.25004E-01 -0.14255E-01 -0.71942E-02 -0.35719E-02 -0.18998E-02
 -0.12684E-02 -0.12506E-02 -0.15516E-02 -0.19768E-02 -0.23663E-02 -0.25650E-02
 -0.24804E-02 -0.20990E-02 -0.15006E-02 -0.87198E-03 -0.50314E-03 -0.81994E-03
 -0.42472E-02 -0.33013E-02 -0.17197E-02 -0.58884E-03 -0.34289E-03 -0.77837E-03
 -0.15125E-02 -0.21728E-02 -0.25238E-02 -0.25344E-02 -0.22641E-02 -0.18149E-02
 -0.13512E-02 -0.10311E-02 -0.10475E-02 -0.17288E-02 -0.35143E-02 -0.72670E-02
 -0.14484E-01 -0.25504E-01 -0.36690E-01 -0.41548E-01 -0.36690E-01 -0.25504E-01
 -0.14484E-01 -0.72670E-02 -0.35143E-02 -0.17288E-02 -0.10475E-02 -0.10311E-02
 -0.13512E-02 -0.18149E-02 -0.22641E-02 -0.25344E-02 -0.25238E-02 -0.21728E-02
 -0.15125E-02 -0.77837E-03 -0.34289E-03 -0.58885E-03 -0.28160E-02 -0.21390E-02
 -0.10802E-02 -0.36762E-03 -0.33214E-03 -0.86503E-03 -0.16359E-02 -0.22650E-02
 -0.25515E-02 -0.25165E-02 -0.22192E-02 -0.17356E-02 -0.12322E-02 -0.88101E-03
 -0.86800E-03 -0.14925E-02 -0.30916E-02 -0.62186E-02 -0.11918E-01 -0.20472E-01
 -0.29145E-01 -0.32919E-01 -0.29145E-01 -0.20472E-01 -0.11918E-01 -0.62186E-02
 -0.30916E-02 -0.14925E-02 -0.86801E-03 -0.88102E-03 -0.12322E-02 -0.17356E-02
 -0.22192E-02 -0.25165E-02 -0.25514E-02 -0.22650E-02 -0.16359E-02 -0.86503E-03
 -0.33214E-03 -0.36762E-03 -0.16370E-02 -0.12016E-02 -0.61927E-03 -0.29886E-03
 -0.45437E-03 -0.10060E-02 -0.16918E-02 -0.22401E-02 -0.25320E-02 -0.25626E-02
 -0.23093E-02 -0.18067E-02 -0.12359E-02 -0.79909E-03 -0.67612E-03 -0.11166E-02
 -0.23615E-02 -0.46472E-02 -0.83952E-02 -0.13645E-01 -0.18811E-01 -0.21036E-01
 -0.18811E-01 -0.13645E-01 -0.83952E-02 -0.46472E-02 -0.23615E-02 -0.11166E-02
 -0.67613E-03 -0.79910E-03 -0.12359E-02 -0.18067E-02 -0.23093E-02 -0.25626E-02
 -0.25319E-02 -0.22401E-02 -0.16918E-02 -0.10060E-02 -0.45437E-03 -0.29886E-03
 -0.12215E-02 -0.86058E-03 -0.46919E-03 -0.31467E-03 -0.53369E-03 -0.10404E-02
 -0.16480E-02 -0.21981E-02 -0.25895E-02 -0.27320E-02 -0.25459E-02 -0.20654E-02
 -0.14647E-02 -0.92803E-03 -0.60648E-03 -0.71212E-03 -0.14856E-02 -0.30717E-02
 -0.54926E-02 -0.84867E-02 -0.11173E-01 -0.12281E-01 -0.11173E-01 -0.84867E-02
 -0.54926E-02 -0.30717E-02 -0.14856E-02 -0.71213E-03 -0.60649E-03 -0.92805E-03
 -0.14648E-02 -0.20654E-02 -0.25459E-02 -0.27321E-02 -0.25895E-02 -0.21981E-02
 -0.16480E-02 -0.10404E-02 -0.53368E-03 -0.31467E-03 -0.13519E-02 -0.93710E-03
 -0.52192E-03 -0.36099E-03 -0.55991E-03 -0.10430E-02 -0.16790E-02 -0.23346E-02
 -0.28647E-02 -0.31441E-02 -0.30999E-02 -0.27241E-02 -0.21008E-02 -0.13963E-02
 -0.80449E-03 -0.53958E-03 -0.84623E-03 -0.19027E-02 -0.36426E-02 -0.56587E-02
 -0.72962E-02 -0.79291E-02 -0.72962E-02 -0.56587E-02 -0.36426E-02 -0.19028E-02
 -0.84624E-03 -0.53959E-03 -0.80450E-03 -0.13963E-02 -0.21009E-02 -0.27241E-02
 -0.30999E-02 -0.31441E-02 -0.28647E-02 -0.23346E-02 -0.16790E-02 -0.10430E-02
 -0.55991E-03 -0.36099E-03 -0.15795E-02 -0.10737E-02 -0.59982E-03 -0.40388E-03
 -0.55788E-03 -0.10116E-02 -0.16763E-02 -0.24290E-02 -0.31623E-02 -0.38106E-02
 -0.42056E-02 -0.40498E-02 -0.32405E-02 -0.20958E-02 -0.10990E-02 -0.55497E-03
 -0.59556E-03 -0.12957E-02 -0.25804E-02 -0.40968E-02 -0.53138E-02 -0.57775E-02
 -0.53138E-02 -0.40968E-02 -0.25804E-02 -0.12957E-02 -0.59557E-03 -0.55497E-03
 -0.10990E-02 -0.20958E-02 -0.32405E-02 -0.40499E-02 -0.42056E-02 -0.38106E-02
 -0.31623E-02 -0.24290E-02 -0.16763E-02 -0.10116E-02 -0.55788E-03 -0.40388E-03
 -0.16749E-02 -0.11066E-02 -0.59989E-03 -0.37363E-03 -0.46345E-03 -0.83820E-03
 -0.14488E-02 -0.22540E-02 -0.33221E-02 -0.46687E-02 -0.58309E-02 -0.59892E-02
 -0.48283E-02 -0.29851E-02 -0.14136E-02 -0.59475E-03 -0.50617E-03 -0.99185E-03
 -0.18895E-02 -0.29465E-02 -0.38082E-02 -0.41417E-02 -0.38082E-02 -0.29465E-02
 -0.18895E-02 -0.99186E-03 -0.50618E-03 -0.59475E-03 -0.14136E-02 -0.29851E-02
 -0.48283E-02 -0.59892E-02 -0.58309E-02 -0.46687E-02 -0.33221E-02 -0.22540E-02
 -0.14488E-02 -0.83820E-03 -0.46345E-03 -0.37362E-03 -0.15225E-02 -0.99780E-03
 -0.51110E-03 -0.26541E-03 -0.29417E-03 -0.57761E-03 -0.10908E-02 -0.18892E-02
 -0.32028E-02 -0.50764E-02 -0.67963E-02 -0.72018E-02 -0.58746E-02 -0.36388E-02
 -0.16953E-02 -0.63436E-03 -0.38814E-03 -0.68446E-03 -0.12860E-02 -0.19831E-02
 -0.25510E-02 -0.27726E-02 -0.25510E-02 -0.19831E-02 -0.12860E-02 -0.68447E-03
 -0.38814E-03 -0.63436E-03 -0.16953E-02 -0.36388E-02 -0.58746E-02 -0.72018E-02
 -0.67963E-02 -0.50764E-02 -0.32028E-02 -0.18892E-02 -0.10908E-02 -0.57761E-03
 -0.29416E-03 -0.26540E-03 -0.95537E-03 -0.63442E-03 -0.31182E-03 -0.13317E-03
 -0.13459E-03 -0.30668E-03 -0.63523E-03 -0.11894E-02 -0.21732E-02 -0.36141E-02
 -0.49490E-02 -0.53058E-02 -0.43821E-02 -0.27722E-02 -0.13310E-02 -0.48824E-03
 -0.21717E-03 -0.33345E-03 -0.66070E-03 -0.10507E-02 -0.13681E-02 -0.14920E-02
 -0.13681E-02 -0.10507E-02 -0.66071E-03 -0.33346E-03 -0.21717E-03 -0.48824E-03
 -0.13310E-02 -0.27722E-02 -0.43821E-02 -0.53058E-02 -0.49490E-02 -0.36141E-02
 -0.21732E-02 -0.11894E-02 -0.63523E-03 -0.30668E-03 -0.13458E-03 -0.13316E-03
  0.35088E-08 -0.22778E-08 -0.73002E-08 -0.86732E-08 -0.69836E-08 -0.36427E-08
 -0.59124E-09 -0.23642E-09 -0.87027E-09  0.20167E-08  0.69315E-08  0.75583E-08
  0.33333E-08 -0.44664E-09 -0.13377E-08 -0.78135E-09  0.31262E-09  0.18976E-08
  0.35026E-08  0.41442E-08  0.24016E-08 -0.17011E-08 -0.53242E-08 -0.60313E-08
 -0.45037E-08 -0.24667E-08 -0.77807E-09  0.43193E-09  0.15309E-08  0.16592E-08
 -0.13107E-08 -0.57864E-08 -0.64167E-08 -0.26938E-08  0.60972E-11 -0.51089E-11
  0.83716E-09  0.36870E-08  0.63084E-08  0.70785E-08  0.95538E-03  0.63441E-03
  0.31181E-03  0.13315E-03  0.13458E-03  0.30667E-03  0.63523E-03  0.11894E-02
  0.21732E-02  0.36141E-02  0.49490E-02  0.53058E-02  0.43821E-02  0.27722E-02
  0.13310E-02  0.48824E-03  0.21717E-03  0.33345E-03  0.66070E-03  0.10507E-02
  0.13681E-02  0.14920E-02  0.13681E-02  0.10507E-02  0.66070E-03  0.33345E-03
  0.21717E-03  0.48824E-03  0.13310E-02  0.27722E-02  0.43821E-02  0.53058E-02
  0.49490E-02  0.36141E-02  0.21732E-02  0.11894E-02  0.63523E-03  0.30669E-03
  0.13460E-03  0.13317E-03  0.15225E-02  0.99780E-03  0.51108E-03  0.26540E-03
  0.29416E-03  0.57761E-03  0.10908E-02  0.18892E-02  0.32028E-02  0.50764E-02
  0.67963E-02  0.72018E-02  0.58746E-02  0.36388E-02  0.16953E-02  0.63436E-03
  0.38814E-03  0.68447E-03  0.12860E-02  0.19831E-02  0.25510E-02  0.27726E-02
  0.25510E-02  0.19831E-02  0.12860E-02  0.68446E-03  0.38814E-03  0.63436E-03
  0.16953E-02  0.36388E-02  0.58746E-02  0.72018E-02  0.67963E-02  0.50764E-02
  0.32028E-02  0.18892E-02  0.10908E-02  0.57762E-03  0.29417E-03  0.26541E-03
  0.16749E-02  0.11066E-02  0.59989E-03  0.37362E-03  0.46344E-03  0.83819E-03
  0.14488E-02  0.22540E-02  0.33221E-02  0.46687E-02  0.58309E-02  0.59892E-02
  0.48283E-02  0.29851E-02  0.14136E-02  0.59475E-03  0.50618E-03  0.99186E-03
  0.18895E-02  0.29465E-02  0.38082E-02  0.41417E-02  0.38082E-02  0.29465E-02
  0.18895E-02  0.99185E-03  0.50617E-03  0.59475E-03  0.14136E-02  0.29851E-02
  0.48283E-02  0.59892E-02  0.58309E-02  0.46687E-02  0.33221E-02  0.22540E-02
  0.14488E-02  0.83821E-03  0.46346E-03  0.37363E-03  0.15795E-02  0.10737E-02
  0.59982E-03  0.40387E-03  0.55788E-03  0.10116E-02  0.16763E-02  0.24290E-02
  0.31623E-02  0.38106E-02  0.42056E-02  0.40498E-02  0.32405E-02  0.20958E-02
  0.10990E-02  0.55497E-03  0.59557E-03  0.12957E-02  0.25804E-02  0.40968E-02
  0.53138E-02  0.57775E-02  0.53138E-02  0.40968E-02  0.25804E-02  0.12957E-02
  0.59556E-03  0.55497E-03  0.10990E-02  0.20958E-02  0.32405E-02  0.40499E-02
  0.42056E-02  0.38106E-02  0.31623E-02  0.24290E-02  0.16763E-02  0.10116E-02
  0.55789E-03  0.40388E-03  0.13519E-02  0.93710E-03  0.52192E-03  0.36099E-03
  0.55990E-03  0.10430E-02  0.16790E-02  0.23346E-02  0.28647E-02  0.31441E-02
  0.30999E-02  0.27241E-02  0.21009E-02  0.13963E-02  0.80450E-03  0.53959E-03
  0.84625E-03  0.19028E-02  0.36426E-02  0.56587E-02  0.72962E-02  0.79291E-02
  0.72962E-02  0.56587E-02  0.36426E-02  0.19027E-02  0.84623E-03  0.53958E-03
  0.80450E-03  0.13963E-02  0.21009E-02  0.27241E-02  0.30999E-02  0.31441E-02
  0.28647E-02  0.23346E-02  0.16790E-02  0.10430E-02  0.55991E-03  0.36100E-03
  0.12215E-02  0.86058E-03  0.46919E-03  0.31467E-03  0.53368E-03  0.10404E-02
  0.16480E-02  0.21981E-02  0.25895E-02  0.27320E-02  0.25459E-02  0.20654E-02
  0.14648E-02  0.92804E-03  0.60649E-03  0.71213E-03  0.14856E-02  0.30717E-02
  0.54926E-02  0.84867E-02  0.11173E-01  0.12281E-01  0.11173E-01  0.84867E-02
  0.54925E-02  0.30717E-02  0.14856E-02  0.71212E-03  0.60648E-03  0.92804E-03
  0.14648E-02  0.20654E-02  0.25459E-02  0.27320E-02  0.25895E-02  0.21981E-02
  0.16480E-02  0.10404E-02  0.53368E-03  0.31467E-03  0.16370E-02  0.12016E-02
  0.61927E-03  0.29886E-03  0.45437E-03  0.10060E-02  0.16918E-02  0.22401E-02
  0.25319E-02  0.25626E-02  0.23093E-02  0.18067E-02  0.12359E-02  0.79910E-03
  0.67613E-03  0.11166E-02  0.23615E-02  0.46472E-02  0.83952E-02  0.13645E-01
  0.18811E-01  0.21036E-01  0.18811E-01  0.13645E-01  0.83952E-02  0.46472E-02
  0.23615E-02  0.11166E-02  0.67612E-03  0.79909E-03  0.12359E-02  0.18067E-02
  0.23093E-02  0.25626E-02  0.25319E-02  0.22401E-02  0.16918E-02  0.10060E-02
  0.45437E-03  0.29886E-03  0.28160E-02  0.21390E-02  0.10802E-02  0.36762E-03
  0.33214E-03  0.86503E-03  0.16359E-02  0.22650E-02  0.25514E-02  0.25165E-02
  0.22192E-02  0.17356E-02  0.12322E-02  0.88102E-03  0.86801E-03  0.14925E-02
  0.30916E-02  0.62186E-02  0.11918E-01  0.20472E-01  0.29145E-01  0.32919E-01
  0.29145E-01  0.20472E-01  0.11918E-01  0.62186E-02  0.30916E-02  0.14925E-02
  0.86800E-03  0.88101E-03  0.12322E-02  0.17356E-02  0.22192E-02  0.25165E-02
  0.25514E-02  0.22650E-02  0.16359E-02  0.86503E-03  0.33214E-03  0.36762E-03
  0.42472E-02  0.33013E-02  0.17197E-02  0.58884E-03  0.34289E-03  0.77837E-03
  0.15125E-02  0.21728E-02  0.25238E-02  0.25344E-02  0.22641E-02  0.18149E-02
  0.13512E-02  0.10311E-02  0.10475E-02  0.17288E-02  0.35143E-02  0.72670E-02
  0.14484E-01  0.25504E-01  0.36690E-01  0.41548E-01  0.36690E-01  0.25504E-01
  0.14484E-01  0.72670E-02  0.35143E-02  0.17288E-02  0.10475E-02  0.10311E-02
  0.13512E-02  0.18149E-02  0.22641E-02  0.25344E-02  0.25238E-02  0.21728E-02
  0.15125E-02  0.77837E-03  0.34289E-03  0.58885E-03  0.49263E-02  0.39067E-02
  0.21194E-02  0.81993E-03  0.50314E-03  0.87198E-03  0.15006E-02  0.20990E-02
  0.24804E-02  0.25650E-02  0.23663E-02  0.19768E-02  0.15516E-02  0.12506E-02
  0.12684E-02  0.18998E-02  0.35719E-02  0.71942E-02  0.14255E-01  0.25004E-01
  0.35845E-01  0.40535E-01  0.35845E-01  0.25004E-01  0.14255E-01  0.71942E-02
  0.35719E-02  0.18998E-02  0.12684E-02  0.12506E-02  0.15516E-02  0.19768E-02
  0.23663E-02  0.25650E-02  0.24804E-02  0.20990E-02  0.15006E-02  0.87198E-03
  0.50314E-03  0.81994E-03  0.42595E-02  0.34348E-02  0.19284E-02  0.83053E-03
  0.61313E-03  0.97537E-03  0.15054E-02  0.19994E-02  0.23398E-02  0.24410E-02
  0.23007E-02  0.19981E-02  0.16532E-02  0.14035E-02  0.14197E-02  0.19148E-02
  0.31929E-02  0.59310E-02  0.11193E-01  0.19086E-01  0.26968E-01  0.30361E-01
  0.26968E-01  0.19086E-01  0.11193E-01  0.59310E-02  0.31929E-02  0.19148E-02
  0.14197E-02  0.14035E-02  0.16532E-02  0.19981E-02  0.23007E-02  0.24410E-02
  0.23398E-02  0.19994E-02  0.15054E-02  0.97537E-03  0.61312E-03  0.83052E-03
  0.26976E-02  0.21765E-02  0.12791E-02  0.67340E-03  0.66584E-03  0.10216E-02
  0.14457E-02  0.18322E-02  0.21114E-02  0.22003E-02  0.20979E-02  0.18711E-02
  0.15961E-02  0.13780E-02  0.13626E-02  0.16971E-02  0.25499E-02  0.42643E-02
  0.73432E-02  0.11759E-01  0.16066E-01  0.17904E-01  0.16066E-01  0.11759E-01
  0.73432E-02  0.42643E-02  0.25499E-02  0.16971E-02  0.13626E-02  0.13780E-02
  0.15961E-02  0.18711E-02  0.20979E-02  0.22003E-02  0.21114E-02  0.18322E-02
  0.14457E-02  0.10216E-02  0.66583E-03  0.67339E-03  0.12735E-02  0.92538E-03
  0.58328E-03  0.50284E-03  0.74082E-03  0.11077E-02  0.14475E-02  0.17386E-02
  0.19431E-02  0.19942E-02  0.18988E-02  0.17111E-02  0.14778E-02  0.12723E-02
  0.12057E-02  0.13885E-02  0.19228E-02  0.29202E-02  0.44759E-02  0.64766E-02
  0.83225E-02  0.90940E-02  0.83225E-02  0.64766E-02  0.44760E-02  0.29203E-02
  0.19228E-02  0.13885E-02  0.12057E-02  0.12723E-02  0.14778E-02  0.17111E-02
  0.18987E-02  0.19942E-02  0.19431E-02  0.17386E-02  0.14475E-02  0.11077E-02
  0.74082E-03  0.50284E-03  0.53706E-03  0.18280E-03  0.67703E-04  0.26057E-03
  0.66251E-03  0.10954E-02  0.14448E-02  0.16773E-02  0.17673E-02  0.17129E-02
  0.15702E-02  0.13988E-02  0.12332E-02  0.11049E-02  0.10456E-02  0.11132E-02
  0.14064E-02  0.19735E-02  0.27545E-02  0.36283E-02  0.43793E-02  0.46874E-02
  0.43793E-02  0.36283E-02  0.27545E-02  0.19735E-02  0.14065E-02  0.11132E-02
  0.10456E-02  0.11049E-02  0.12332E-02  0.13988E-02  0.15702E-02  0.17129E-02
  0.17672E-02  0.16773E-02  0.14448E-02  0.10954E-02  0.66251E-03  0.26057E-03
  0.28842E-03 -0.68698E-04 -0.20368E-03 -0.35175E-04  0.35590E-03  0.82764E-03
  0.12400E-02  0.14778E-02  0.14968E-02  0.13617E-02  0.11799E-02  0.10129E-02
  0.89418E-03  0.84528E-03  0.84285E-03  0.88629E-03  0.10621E-02  0.14147E-02
  0.18611E-02  0.23097E-02  0.26844E-02  0.28407E-02  0.26844E-02  0.23097E-02
  0.18611E-02  0.14147E-02  0.10621E-02  0.88632E-03  0.84287E-03  0.84529E-03
  0.89418E-03  0.10129E-02  0.11799E-02  0.13617E-02  0.14968E-02  0.14778E-02
  0.12400E-02  0.82764E-03  0.35591E-03 -0.35171E-04  0.23205E-03 -0.19034E-04
 -0.18736E-03 -0.14132E-03  0.10908E-03  0.48399E-03  0.87395E-03  0.11490E-02
  0.12377E-02  0.11954E-02  0.11094E-02  0.98658E-03  0.82659E-03  0.69810E-03
  0.65757E-03  0.72047E-03  0.92039E-03  0.12478E-02  0.15945E-02  0.18737E-02
  0.20705E-02  0.21482E-02  0.20705E-02  0.18737E-02  0.15945E-02  0.12478E-02
  0.92041E-03  0.72049E-03  0.65759E-03  0.69812E-03  0.82659E-03  0.98658E-03
  0.11094E-02  0.11954E-02  0.12377E-02  0.11490E-02  0.87396E-03  0.48400E-03
  0.10909E-03 -0.14132E-03  0.26294E-03  0.13323E-03  0.12103E-04  0.10409E-04
  0.10851E-03  0.26166E-03  0.47014E-03  0.70660E-03  0.90961E-03  0.10953E-02
  0.13037E-02  0.14225E-02  0.12922E-02  0.97979E-03  0.72999E-03  0.69702E-03
  0.87439E-03  0.11734E-02  0.14647E-02  0.16467E-02  0.17172E-02  0.17312E-02
  0.17172E-02  0.16467E-02  0.14646E-02  0.11734E-02  0.87439E-03  0.69704E-03
  0.73001E-03  0.97980E-03  0.12922E-02  0.14225E-02  0.13037E-02  0.10952E-02
  0.90961E-03  0.70660E-03  0.47014E-03  0.26167E-03  0.10852E-03  0.10417E-04
  0.19791E-03  0.18031E-03  0.20422E-03  0.26472E-03  0.26863E-03  0.18016E-03
  0.10705E-03  0.16033E-03  0.36081E-03  0.77339E-03  0.14502E-02  0.21110E-02
  0.22723E-02  0.18573E-02  0.13064E-02  0.10135E-02  0.99824E-03  0.11113E-02
  0.12271E-02  0.12546E-02  0.11908E-02  0.11449E-02  0.11908E-02  0.12546E-02
  0.12271E-02  0.11113E-02  0.99824E-03  0.10135E-02  0.13064E-02  0.18573E-02
  0.22723E-02  0.21110E-02  0.14502E-02  0.77338E-03  0.36081E-03  0.16033E-03
  0.10706E-03  0.18017E-03  0.26864E-03  0.26474E-03  0.55957E-03  0.28865E-03
 -0.75156E-04 -0.27228E-03 -0.19837E-03  0.18591E-03  0.84699E-03  0.16644E-02
  0.25225E-02  0.31568E-02  0.30417E-02  0.19304E-02  0.36661E-03 -0.81279E-03
 -0.13305E-02 -0.14968E-02 -0.16131E-02 -0.16686E-02 -0.15339E-02 -0.12258E-02
 -0.92162E-03 -0.79836E-03 -0.92164E-03 -0.12258E-02 -0.15339E-02 -0.16686E-02
 -0.16131E-02 -0.14968E-02 -0.13305E-02 -0.81279E-03  0.36663E-03  0.19304E-02
  0.30417E-02  0.31568E-02  0.25225E-02  0.16644E-02  0.84698E-03  0.18590E-03
 -0.19837E-03 -0.27227E-03  0.23844E-03 -0.24116E-04 -0.22706E-03 -0.17759E-03
  0.91360E-04  0.49205E-03  0.97617E-03  0.15705E-02  0.23741E-02  0.31961E-02
  0.33553E-02  0.24063E-02  0.86835E-03 -0.32575E-03 -0.85595E-03 -0.10420E-02
 -0.11747E-02 -0.12461E-02 -0.11533E-02 -0.89006E-03 -0.59036E-03 -0.45676E-03
 -0.59038E-03 -0.89009E-03 -0.11533E-02 -0.12461E-02 -0.11747E-02 -0.10421E-02
 -0.85596E-03 -0.32574E-03  0.86839E-03  0.24063E-02  0.33553E-02  0.31961E-02
  0.23741E-02  0.15705E-02  0.97616E-03  0.49204E-03  0.91360E-04 -0.17759E-03
 -0.14073E-04  0.46423E-04  0.15404E-03  0.29784E-03  0.43703E-03  0.56541E-03
  0.71755E-03  0.10258E-02  0.17004E-02  0.26049E-02  0.30394E-02  0.24724E-02
  0.12790E-02  0.26030E-03 -0.27731E-03 -0.54419E-03 -0.72240E-03 -0.80079E-03
 -0.73692E-03 -0.54150E-03 -0.30733E-03 -0.19892E-03 -0.30735E-03 -0.54152E-03
 -0.73694E-03 -0.80080E-03 -0.72241E-03 -0.54420E-03 -0.27731E-03  0.26031E-03
  0.12790E-02  0.24725E-02  0.30394E-02  0.26049E-02  0.17003E-02  0.10258E-02
  0.71755E-03  0.56541E-03  0.43703E-03  0.29784E-03  0.64870E-05  0.36617E-03
  0.62174E-03  0.63993E-03  0.48138E-03  0.29326E-03  0.19034E-03  0.29863E-03
  0.77139E-03  0.15014E-02  0.19769E-02  0.17843E-02  0.11086E-02  0.43982E-03
 -0.50840E-05 -0.30524E-03 -0.52257E-03 -0.61730E-03 -0.55650E-03 -0.37434E-03
 -0.17368E-03 -0.85704E-04 -0.17370E-03 -0.37436E-03 -0.55651E-03 -0.61731E-03
 -0.52258E-03 -0.30524E-03 -0.50886E-05  0.43983E-03  0.11087E-02  0.17843E-02
  0.19769E-02  0.15013E-02  0.77138E-03  0.29861E-03  0.19033E-03  0.29326E-03
  0.48138E-03  0.63993E-03  0.34457E-03  0.75086E-03  0.89561E-03  0.69967E-03
  0.30719E-03 -0.86037E-04 -0.33291E-03 -0.33277E-03 -0.48643E-04  0.39739E-03
  0.72851E-03  0.73795E-03  0.47489E-03  0.14174E-03 -0.12469E-03 -0.31465E-03
 -0.44544E-03 -0.47149E-03 -0.33503E-03 -0.84294E-04  0.13886E-03  0.22379E-03
  0.13885E-03 -0.84305E-04 -0.33505E-03 -0.47150E-03 -0.44545E-03 -0.31465E-03
 -0.12469E-03  0.14174E-03  0.47490E-03  0.73796E-03  0.72850E-03  0.39737E-03
 -0.48663E-04 -0.33279E-03 -0.33293E-03 -0.86039E-04  0.30719E-03  0.69967E-03
  0.71066E-03  0.10388E-02  0.10023E-02  0.64885E-03  0.14321E-03 -0.36202E-03
 -0.71380E-03 -0.79923E-03 -0.64999E-03 -0.42143E-03 -0.25162E-03 -0.19209E-03
 -0.23662E-03 -0.32419E-03 -0.35278E-03 -0.28295E-03 -0.16312E-03  0.13207E-05
  0.26216E-03  0.57341E-03  0.79874E-03  0.87294E-03  0.79873E-03  0.57340E-03
  0.26215E-03  0.13079E-05 -0.16313E-03 -0.28296E-03 -0.35277E-03 -0.32418E-03
 -0.23662E-03 -0.19209E-03 -0.25163E-03 -0.42144E-03 -0.65002E-03 -0.79926E-03
 -0.71382E-03 -0.36203E-03  0.14321E-03  0.64885E-03  0.87619E-03  0.11252E-02
  0.96961E-03  0.53313E-03 -0.24695E-04 -0.58874E-03 -0.10302E-02 -0.12457E-02
 -0.12667E-02 -0.12171E-02 -0.11561E-02 -0.10553E-02 -0.90282E-03 -0.70902E-03
 -0.44549E-03 -0.10706E-03  0.22944E-03  0.51790E-03  0.80391E-03  0.10945E-02
  0.13073E-02  0.13811E-02  0.13073E-02  0.10945E-02  0.80391E-03  0.51789E-03
  0.22943E-03 -0.10706E-03 -0.44548E-03 -0.70901E-03 -0.90281E-03 -0.10553E-02
 -0.11561E-02 -0.12171E-02 -0.12668E-02 -0.12457E-02 -0.10302E-02 -0.58876E-03
 -0.24705E-04  0.53312E-03  0.95971E-03  0.11745E-02  0.10148E-02  0.55399E-03
 -0.66966E-04 -0.70654E-03 -0.12633E-02 -0.16779E-02 -0.19295E-02 -0.20336E-02
 -0.19942E-02 -0.17730E-02 -0.13660E-02 -0.85949E-03 -0.35069E-03  0.10536E-03
  0.45205E-03  0.66815E-03  0.85504E-03  0.11359E-02  0.14548E-02  0.16007E-02
  0.14548E-02  0.11359E-02  0.85504E-03  0.66815E-03  0.45204E-03  0.10536E-03
 -0.35068E-03 -0.85947E-03 -0.13660E-02 -0.17730E-02 -0.19942E-02 -0.20336E-02
 -0.19295E-02 -0.16779E-02 -0.12633E-02 -0.70656E-03 -0.66985E-04  0.55398E-03
  0.10611E-02  0.14774E-02  0.15459E-02  0.11064E-02  0.29455E-03 -0.58924E-03
 -0.13793E-02 -0.20307E-02 -0.24599E-02 -0.25941E-02 -0.24510E-02 -0.20611E-02
 -0.14588E-02 -0.77395E-03 -0.17572E-03  0.25034E-03  0.47426E-03  0.51369E-03
  0.55096E-03  0.83055E-03  0.12916E-02  0.15284E-02  0.12916E-02  0.83056E-03
  0.55096E-03  0.51369E-03  0.47426E-03  0.25034E-03 -0.17571E-03 -0.77393E-03
 -0.14588E-02 -0.20610E-02 -0.24510E-02 -0.25941E-02 -0.24599E-02 -0.20307E-02
 -0.13793E-02 -0.58926E-03  0.29453E-03  0.11064E-02  0.11295E-02  0.21299E-02
  0.26555E-02  0.21752E-02  0.93996E-03 -0.40648E-03 -0.15270E-02 -0.23750E-02
 -0.28648E-02 -0.29203E-02 -0.26173E-02 -0.20740E-02 -0.13740E-02 -0.65055E-03
 -0.69638E-04  0.26622E-03  0.30060E-03  0.34753E-04 -0.34488E-03 -0.54043E-03
 -0.47979E-03 -0.40254E-03 -0.47978E-03 -0.54042E-03 -0.34487E-03  0.34757E-04
  0.30060E-03  0.26622E-03 -0.69632E-04 -0.65054E-03 -0.13739E-02 -0.20739E-02
 -0.26173E-02 -0.29203E-02 -0.28648E-02 -0.23750E-02 -0.15270E-02 -0.40650E-03
  0.93994E-03  0.21752E-02  0.12512E-02  0.29808E-02  0.39380E-02  0.32773E-02
  0.15109E-02 -0.31322E-03 -0.16989E-02 -0.26349E-02 -0.31087E-02 -0.30971E-02
 -0.26983E-02 -0.20511E-02 -0.12785E-02 -0.53054E-03  0.23431E-04  0.22684E-03
 -0.60304E-04 -0.92509E-03 -0.23275E-02 -0.40117E-02 -0.54523E-02 -0.60290E-02
 -0.54523E-02 -0.40117E-02 -0.23275E-02 -0.92508E-03 -0.60303E-04  0.22684E-03
  0.23433E-04 -0.53054E-03 -0.12785E-02 -0.20511E-02 -0.26983E-02 -0.30971E-02
 -0.31087E-02 -0.26350E-02 -0.16989E-02 -0.31323E-03  0.15109E-02  0.32773E-02
  0.14745E-02  0.36066E-02  0.47219E-02  0.38845E-02  0.18162E-02 -0.24012E-03
 -0.17306E-02 -0.26527E-02 -0.30553E-02 -0.29912E-02 -0.25611E-02 -0.18725E-02
 -0.10634E-02 -0.30834E-03  0.20711E-03  0.26179E-03 -0.37708E-03 -0.19351E-02
 -0.46521E-02 -0.83996E-02 -0.11997E-01 -0.13525E-01 -0.11997E-01 -0.83996E-02
 -0.46521E-02 -0.19351E-02 -0.37708E-03  0.26178E-03  0.20711E-03 -0.30834E-03
 -0.10635E-02 -0.18725E-02 -0.25611E-02 -0.29912E-02 -0.30553E-02 -0.26527E-02
 -0.17306E-02 -0.24012E-03  0.18162E-02  0.38845E-02  0.15450E-02  0.35003E-02
  0.44660E-02  0.36360E-02  0.16884E-02 -0.27752E-03 -0.17285E-02 -0.25734E-02
 -0.28564E-02 -0.27109E-02 -0.22602E-02 -0.15809E-02 -0.80569E-03 -0.10528E-03
  0.35243E-03  0.33590E-03 -0.42494E-03 -0.22573E-02 -0.56472E-02 -0.10625E-01
 -0.15596E-01 -0.17745E-01 -0.15596E-01 -0.10625E-01 -0.56472E-02 -0.22573E-02
 -0.42494E-03  0.33589E-03  0.35242E-03 -0.10528E-03 -0.80569E-03 -0.15809E-02
 -0.22602E-02 -0.27109E-02 -0.28564E-02 -0.25734E-02 -0.17285E-02 -0.27752E-03
  0.16884E-02  0.36360E-02  0.12963E-02  0.26815E-02  0.33224E-02  0.26478E-02
  0.11029E-02 -0.53566E-03 -0.17967E-02 -0.25066E-02 -0.26990E-02 -0.25352E-02
 -0.21106E-02 -0.14609E-02 -0.71351E-03 -0.37377E-04  0.42243E-03  0.46432E-03
 -0.14614E-03 -0.16986E-02 -0.46773E-02 -0.91853E-02 -0.13771E-01 -0.15770E-01
 -0.13771E-01 -0.91853E-02 -0.46773E-02 -0.16986E-02 -0.14614E-03  0.46431E-03
  0.42242E-03 -0.37386E-04 -0.71351E-03 -0.14609E-02 -0.21106E-02 -0.25352E-02
 -0.26990E-02 -0.25066E-02 -0.17967E-02 -0.53565E-03  0.11029E-02  0.26478E-02
  0.89060E-03  0.17311E-02  0.20840E-02  0.15846E-02  0.46159E-03 -0.77595E-03
 -0.17506E-02 -0.23231E-02 -0.25438E-02 -0.24997E-02 -0.21758E-02 -0.15605E-02
 -0.78466E-03 -0.24823E-04  0.57038E-03  0.80641E-03  0.48293E-03 -0.57041E-03
 -0.25992E-02 -0.56096E-02 -0.86355E-02 -0.99483E-02 -0.86355E-02 -0.56096E-02
 -0.25992E-02 -0.57041E-03  0.48292E-03  0.80640E-03  0.57037E-03 -0.24835E-04
 -0.78467E-03 -0.15605E-02 -0.21758E-02 -0.24997E-02 -0.25438E-02 -0.23231E-02
 -0.17505E-02 -0.77594E-03  0.46159E-03  0.15846E-02  0.45474E-03  0.10293E-02
  0.12832E-02  0.95083E-03  0.13391E-03 -0.81392E-03 -0.16119E-02 -0.21805E-02
 -0.25353E-02 -0.26440E-02 -0.24212E-02 -0.18557E-02 -0.10581E-02 -0.16856E-03