       #
       # Generated by the Wannier90 code http://www.wannier.org
       # On 23Sep2015 at 16:17:37 
       #
CRYSTAL
PRIMVEC
   3.8425000   0.0000000   0.0000000
   0.0000000   3.8425000   0.0000000
   0.0000000   0.0000000   3.8425000
CONVVEC
   3.8425000   0.0000000   0.0000000
   0.0000000   3.8425000   0.0000000
   0.0000000   0.0000000   3.8425000
PRIMCOORD
     5  1
V       0.0000000   0.0000000   0.0000000
Sr      1.9212500   1.9212500   1.9212500
O       1.9212500   0.0000000   0.0000000
O       0.0000000   1.9212500   0.0000000
O       0.0000000   0.0000000   1.9212500


BEGIN_BLOCK_DATAGRID_3D
3D_field
BEGIN_DATAGRID_3D_UNKNOWN
    40    40    40
   -4.034625   -4.034625   -4.034625
   7.4928749   0.0000000   0.0000000
   0.0000000   7.4928749   0.0000000
   0.0000000   0.0000000   7.4928749
 -0.13330E-02 -0.12620E-02 -0.95903E-03 -0.65899E-03 -0.84223E-03 -0.18708E-02
 -0.36418E-02 -0.62100E-02 -0.97345E-02 -0.12622E-01 -0.11575E-01 -0.56582E-02
  0.13869E-02  0.50864E-02  0.48767E-02  0.30954E-02  0.13778E-02 -0.23140E-04
 -0.94507E-03 -0.11817E-02 -0.99362E-03 -0.86143E-03 -0.99363E-03 -0.11817E-02
 -0.94507E-03 -0.23129E-04  0.13778E-02  0.30954E-02  0.48767E-02  0.50864E-02
  0.13869E-02 -0.56582E-02 -0.11575E-01 -0.12622E-01 -0.97345E-02 -0.62100E-02
 -0.36418E-02 -0.18708E-02 -0.84223E-03 -0.65898E-03 -0.10759E-02 -0.76414E-03
 -0.34121E-03 -0.24357E-03 -0.92202E-03 -0.25033E-02 -0.47194E-02 -0.77635E-02
 -0.12086E-01 -0.16027E-01 -0.15622E-01 -0.92571E-02 -0.81906E-03  0.43288E-02
  0.49254E-02  0.33409E-02  0.16250E-02  0.32381E-03 -0.34355E-03 -0.25412E-03
  0.19871E-03  0.43090E-03  0.19870E-03 -0.25413E-03 -0.34355E-03  0.32382E-03
  0.16250E-02  0.33409E-02  0.49254E-02  0.43288E-02 -0.81907E-03 -0.92571E-02
 -0.15622E-01 -0.16027E-01 -0.12086E-01 -0.77635E-02 -0.47194E-02 -0.25033E-02
 -0.92202E-03 -0.24357E-03 -0.70857E-03 -0.45020E-03 -0.34830E-03 -0.64638E-03
 -0.15376E-02 -0.29982E-02 -0.47911E-02 -0.72604E-02 -0.11159E-01 -0.15295E-01
 -0.15922E-01 -0.10906E-01 -0.32136E-02  0.21785E-02  0.35874E-02  0.27946E-02
  0.16455E-02  0.75148E-03  0.36766E-03  0.59754E-03  0.10787E-02  0.13064E-02
  0.10787E-02  0.59754E-03  0.36766E-03  0.75148E-03  0.16456E-02  0.27946E-02
  0.35874E-02  0.21785E-02 -0.32136E-02 -0.10906E-01 -0.15922E-01 -0.15295E-01
 -0.11159E-01 -0.72604E-02 -0.47911E-02 -0.29982E-02 -0.15376E-02 -0.64638E-03
 -0.56131E-03 -0.73952E-03 -0.10183E-02 -0.13317E-02 -0.18048E-02 -0.26320E-02
 -0.38115E-02 -0.55709E-02 -0.84540E-02 -0.11738E-01 -0.12693E-01 -0.94212E-02
 -0.37179E-02  0.80060E-03  0.26277E-02  0.27662E-02  0.23892E-02  0.19228E-02
  0.16518E-02  0.17652E-02  0.20614E-02  0.22046E-02  0.20614E-02  0.17652E-02
  0.16518E-02  0.19228E-02  0.23892E-02  0.27662E-02  0.26277E-02  0.80060E-03
 -0.37179E-02 -0.94212E-02 -0.12693E-01 -0.11738E-01 -0.84540E-02 -0.55709E-02
 -0.38115E-02 -0.26320E-02 -0.18048E-02 -0.13317E-02 -0.81752E-03 -0.12387E-02
 -0.14268E-02 -0.13518E-02 -0.13085E-02 -0.17388E-02 -0.27559E-02 -0.42000E-02
 -0.59993E-02 -0.76767E-02 -0.78679E-02 -0.56138E-02 -0.19113E-02  0.12139E-02
  0.28366E-02  0.33606E-02  0.33096E-02  0.29586E-02  0.26477E-02  0.26132E-02
  0.27433E-02  0.28150E-02  0.27433E-02  0.26132E-02  0.26477E-02  0.29586E-02
  0.33096E-02  0.33606E-02  0.28366E-02  0.12139E-02 -0.19113E-02 -0.56138E-02
 -0.78679E-02 -0.76767E-02 -0.59993E-02 -0.42000E-02 -0.27559E-02 -0.17388E-02
 -0.13085E-02 -0.13518E-02 -0.11297E-02 -0.12569E-02 -0.10490E-02 -0.76578E-03
 -0.71451E-03 -0.11695E-02 -0.21096E-02 -0.31446E-02 -0.38717E-02 -0.40382E-02
 -0.33599E-02 -0.17236E-02  0.38600E-03  0.21726E-02  0.32339E-02  0.36504E-02
  0.36294E-02  0.34169E-02  0.32916E-02  0.33539E-02  0.34779E-02  0.35311E-02
  0.34779E-02  0.33539E-02  0.32916E-02  0.34169E-02  0.36294E-02  0.36504E-02
  0.32339E-02  0.21726E-02  0.38600E-03 -0.17235E-02 -0.33599E-02 -0.40382E-02
 -0.38717E-02 -0.31446E-02 -0.21096E-02 -0.11695E-02 -0.71453E-03 -0.76579E-03
 -0.94597E-03 -0.67248E-03 -0.36139E-03 -0.33186E-03 -0.58870E-03 -0.10015E-02
 -0.14363E-02 -0.16950E-02 -0.15930E-02 -0.11305E-02 -0.42208E-03  0.47138E-03
  0.14897E-02  0.24529E-02  0.31564E-02  0.35526E-02  0.37651E-02  0.39579E-02
  0.42272E-02  0.45658E-02  0.48685E-02  0.49922E-02  0.48685E-02  0.45658E-02
  0.42272E-02  0.39579E-02  0.37651E-02  0.35526E-02  0.31565E-02  0.24529E-02
  0.14897E-02  0.47138E-03 -0.42208E-03 -0.11305E-02 -0.15931E-02 -0.16950E-02
 -0.14364E-02 -0.10015E-02 -0.58872E-03 -0.33188E-03 -0.36529E-03 -0.70728E-04
 -0.52782E-05 -0.22567E-03 -0.47552E-03 -0.50433E-03 -0.31391E-03 -0.41150E-04
  0.22731E-03  0.46147E-03  0.70001E-03  0.10991E-02  0.17742E-02  0.25920E-02
  0.33143E-02  0.38788E-02  0.43447E-02  0.47483E-02  0.52565E-02  0.61342E-02
  0.72021E-02  0.77111E-02  0.72021E-02  0.61342E-02  0.52566E-02  0.47484E-02
  0.43447E-02  0.38788E-02  0.33143E-02  0.25921E-02  0.17742E-02  0.10991E-02
  0.70000E-03  0.46146E-03  0.22729E-03 -0.41178E-04 -0.31394E-03 -0.50436E-03
 -0.47555E-03 -0.22569E-03 -0.22573E-03 -0.73630E-04  0.58500E-05  0.49098E-04
  0.20150E-03  0.51869E-03  0.83390E-03  0.95478E-03  0.89500E-03  0.84255E-03
  0.10288E-02  0.16146E-02  0.25186E-02  0.34201E-02  0.40932E-02  0.45478E-02
  0.47681E-02  0.48274E-02  0.54111E-02  0.73208E-02  0.99465E-02  0.11224E-01
  0.99465E-02  0.73208E-02  0.54111E-02  0.48275E-02  0.47682E-02  0.45478E-02
  0.40933E-02  0.34201E-02  0.25186E-02  0.16147E-02  0.10288E-02  0.84253E-03
  0.89497E-03  0.95475E-03  0.83387E-03  0.51866E-03  0.20147E-03  0.49076E-04
 -0.11124E-02 -0.74848E-03 -0.20856E-04  0.65054E-03  0.10734E-02  0.12703E-02
  0.12368E-02  0.10235E-02  0.87904E-03  0.10861E-02  0.17412E-02  0.27096E-02
  0.36657E-02  0.42857E-02  0.45115E-02  0.44192E-02  0.39287E-02  0.32564E-02
  0.35481E-02  0.58902E-02  0.93059E-02  0.10975E-01  0.93059E-02  0.58902E-02
  0.35481E-02  0.32565E-02  0.39287E-02  0.44193E-02  0.45115E-02  0.42858E-02
  0.36657E-02  0.27096E-02  0.17412E-02  0.10861E-02  0.87902E-03  0.10234E-02
  0.12367E-02  0.12702E-02  0.10734E-02  0.65052E-03 -0.27239E-02 -0.18016E-02
 -0.19599E-03  0.98358E-03  0.13412E-02  0.12051E-02  0.96639E-03  0.87298E-03
  0.11377E-02  0.18210E-02  0.27233E-02  0.35447E-02  0.40597E-02  0.41882E-02
  0.39743E-02  0.33665E-02  0.21408E-02  0.42385E-03 -0.88923E-03 -0.89825E-03
  0.75930E-04  0.66287E-03  0.75939E-04 -0.89823E-03 -0.88921E-03  0.42386E-03
  0.21409E-02  0.33665E-02  0.39743E-02  0.41882E-02  0.40597E-02  0.35447E-02
  0.27233E-02  0.18210E-02  0.11377E-02  0.87296E-03  0.96637E-03  0.12051E-02
  0.13411E-02  0.98357E-03 -0.41032E-02 -0.28345E-02 -0.84684E-03  0.50791E-03
  0.87659E-03  0.81677E-03  0.87472E-03  0.12221E-02  0.18245E-02  0.25085E-02
  0.30350E-02  0.33202E-02  0.34691E-02  0.35553E-02  0.34368E-02  0.27323E-02
  0.99453E-03 -0.20389E-02 -0.63431E-02 -0.11412E-01 -0.15835E-01 -0.17639E-01
 -0.15835E-01 -0.11412E-01 -0.63431E-02 -0.20389E-02  0.99454E-03  0.27323E-02
  0.34368E-02  0.35554E-02  0.34691E-02  0.33202E-02  0.30349E-02  0.25085E-02
  0.18245E-02  0.12221E-02  0.87472E-03  0.81678E-03  0.87660E-03  0.50791E-03
 -0.42297E-02 -0.32322E-02 -0.16386E-02 -0.36322E-03  0.34065E-03  0.80822E-03
  0.13173E-02  0.18443E-02  0.22517E-02  0.24402E-02  0.24575E-02  0.25461E-02
  0.29229E-02  0.34863E-02  0.37819E-02  0.32049E-02  0.12077E-02 -0.27933E-02
 -0.95255E-02 -0.18796E-01 -0.27717E-01 -0.31513E-01 -0.27717E-01 -0.18796E-01
 -0.95255E-02 -0.27933E-02  0.12077E-02  0.32049E-02  0.37819E-02  0.34863E-02
  0.29229E-02  0.25461E-02  0.24575E-02  0.24402E-02  0.22517E-02  0.18443E-02
  0.13173E-02  0.80824E-03  0.34067E-03 -0.36321E-03 -0.29591E-02 -0.26173E-02
 -0.17561E-02 -0.63668E-03  0.42380E-03  0.12615E-02  0.18208E-02  0.20622E-02
  0.19979E-02  0.17797E-02  0.17364E-02  0.21871E-02  0.31068E-02  0.40828E-02
  0.45730E-02  0.40761E-02  0.21500E-02 -0.17741E-02 -0.85322E-02 -0.18079E-01
 -0.27439E-01 -0.31460E-01 -0.27439E-01 -0.18079E-01 -0.85322E-02 -0.17742E-02
  0.21499E-02  0.40761E-02  0.45730E-02  0.40828E-02  0.31067E-02  0.21870E-02
  0.17364E-02  0.17798E-02  0.19979E-02  0.20622E-02  0.18209E-02  0.12616E-02
  0.42383E-03 -0.63666E-03 -0.13168E-02 -0.14422E-02 -0.98745E-03  0.70003E-04
  0.11744E-02  0.18427E-02  0.20159E-02  0.18548E-02  0.15303E-02  0.12877E-02
  0.14855E-02  0.23008E-02  0.34489E-02  0.44394E-02  0.49519E-02  0.47261E-02
  0.33900E-02  0.52778E-03 -0.43256E-02 -0.11093E-01 -0.17739E-01 -0.20607E-01
 -0.17739E-01 -0.11093E-01 -0.43256E-02  0.52774E-03  0.33900E-02  0.47261E-02
  0.49519E-02  0.44394E-02  0.34488E-02  0.23008E-02  0.14856E-02  0.12877E-02
  0.15303E-02  0.18548E-02  0.20160E-02  0.18427E-02  0.11745E-02  0.70029E-04
 -0.19447E-03 -0.33371E-03  0.19425E-03  0.12371E-02  0.20560E-02  0.22701E-02
  0.20962E-02  0.18227E-02  0.15372E-02  0.13530E-02  0.15157E-02  0.21152E-02
  0.29238E-02  0.37309E-02  0.45422E-02  0.51816E-02  0.51018E-02  0.38277E-02
  0.12005E-02 -0.25583E-02 -0.62685E-02 -0.78764E-02 -0.62685E-02 -0.25583E-02
  0.12004E-02  0.38277E-02  0.51017E-02  0.51815E-02  0.45422E-02  0.37309E-02
  0.29238E-02  0.21152E-02  0.15157E-02  0.13530E-02  0.15373E-02  0.18227E-02
  0.20963E-02  0.22702E-02  0.20561E-02  0.12372E-02  0.53802E-03  0.66806E-03
  0.13792E-02  0.22303E-02  0.26091E-02  0.25514E-02  0.24604E-02  0.24030E-02
  0.21659E-02  0.17163E-02  0.12552E-02  0.99999E-03  0.11454E-02  0.19439E-02
  0.35391E-02  0.55855E-02  0.72507E-02  0.77771E-02  0.69179E-02  0.49846E-02
  0.29112E-02  0.20005E-02  0.29112E-02  0.49846E-02  0.69179E-02  0.77771E-02
  0.72507E-02  0.55854E-02  0.35390E-02  0.19439E-02  0.11454E-02  0.99999E-03
  0.12552E-02  0.17163E-02  0.21659E-02  0.24030E-02  0.24605E-02  0.25514E-02
  0.26091E-02  0.22303E-02  0.10942E-02  0.15663E-02  0.23185E-02  0.28195E-02
  0.28990E-02  0.30203E-02  0.34264E-02  0.36818E-02  0.33022E-02  0.21933E-02
  0.51459E-03 -0.11643E-02 -0.17706E-02 -0.50193E-03  0.24318E-02  0.61003E-02
  0.94678E-02  0.11601E-01  0.11924E-01  0.10704E-01  0.90834E-02  0.83576E-02
  0.90834E-02  0.10704E-01  0.11924E-01  0.11601E-01  0.94678E-02  0.61002E-02
  0.24318E-02 -0.50197E-03 -0.17706E-02 -0.11643E-02  0.51460E-03  0.21934E-02
  0.33022E-02  0.36819E-02  0.34264E-02  0.30203E-02  0.28989E-02  0.28195E-02
  0.12360E-02  0.20294E-02  0.27611E-02  0.30645E-02  0.32726E-02  0.40046E-02
  0.50665E-02  0.56364E-02  0.52298E-02  0.35188E-02  0.15251E-03 -0.38420E-02
 -0.57200E-02 -0.36934E-02  0.11394E-02  0.65265E-02  0.11154E-01  0.14239E-01
  0.14977E-01  0.13545E-01  0.11515E-01  0.10612E-01  0.11515E-01  0.13545E-01
  0.14977E-01  0.14239E-01  0.11154E-01  0.65265E-02  0.11394E-02 -0.36934E-02
 -0.57201E-02 -0.38420E-02  0.15253E-03  0.35188E-02  0.52298E-02  0.56364E-02
  0.50665E-02  0.40046E-02  0.32726E-02  0.30644E-02  0.98006E-03  0.19712E-02
  0.27181E-02  0.31583E-02  0.39169E-02  0.54241E-02  0.70624E-02  0.81237E-02
  0.84845E-02  0.71100E-02  0.21743E-02 -0.51387E-02 -0.96248E-02 -0.75818E-02
 -0.94264E-03  0.61060E-02  0.11581E-01  0.14963E-01  0.15413E-01  0.13054E-01
  0.99863E-02  0.86411E-02  0.99863E-02  0.13054E-01  0.15413E-01  0.14963E-01
  0.11581E-01  0.61060E-02 -0.94265E-03 -0.75818E-02 -0.96248E-02 -0.51387E-02
  0.21743E-02  0.71100E-02  0.84845E-02  0.81237E-02  0.70624E-02  0.54240E-02
  0.39169E-02  0.31583E-02  0.59758E-03  0.16310E-02  0.24759E-02  0.33174E-02
  0.47584E-02  0.68736E-02  0.88794E-02  0.10668E-01  0.12746E-01  0.13130E-01
  0.78105E-02 -0.26459E-02 -0.10785E-01 -0.10357E-01 -0.32313E-02  0.47888E-02
  0.10743E-01  0.14091E-01  0.13979E-01  0.10512E-01  0.62705E-02  0.44213E-02
  0.62705E-02  0.10512E-01  0.13979E-01  0.14091E-01  0.10743E-01  0.47888E-02
 -0.32313E-02 -0.10357E-01 -0.10785E-01 -0.26459E-02  0.78105E-02  0.13130E-01
  0.12746E-01  0.10668E-01  0.88794E-02  0.68736E-02  0.47583E-02  0.33174E-02
  0.15340E-03  0.11977E-02  0.22933E-02  0.36373E-02  0.55749E-02  0.79302E-02
  0.10027E-01  0.12379E-01  0.16097E-01  0.18739E-01  0.14654E-01  0.31650E-02
 -0.76491E-02 -0.97487E-02 -0.39396E-02  0.37054E-02  0.95441E-02  0.12673E-01
  0.12115E-01  0.79754E-02  0.30675E-02  0.93389E-03  0.30675E-02  0.79754E-02
  0.12115E-01  0.12673E-01  0.95441E-02  0.37054E-02 -0.39396E-02 -0.97487E-02
 -0.76491E-02  0.31650E-02  0.14654E-01  0.18739E-01  0.16097E-01  0.12379E-01
  0.10027E-01  0.79302E-02  0.55748E-02  0.36373E-02 -0.15853E-03  0.92666E-03
  0.23335E-02  0.40430E-02  0.60770E-02  0.82563E-02  0.10150E-01  0.12429E-01
  0.16387E-01  0.20019E-01  0.17790E-01  0.80494E-02 -0.25501E-02 -0.62328E-02
 -0.26046E-02  0.34764E-02  0.85461E-02  0.11339E-01  0.10724E-01  0.67810E-02
  0.21443E-02  0.13087E-03  0.21443E-02  0.67810E-02  0.10724E-01  0.11339E-01
  0.85461E-02  0.34765E-02 -0.26046E-02 -0.62328E-02 -0.25501E-02  0.80494E-02
  0.17790E-01  0.20019E-01  0.16387E-01  0.12429E-01  0.10150E-01  0.82563E-02
  0.60770E-02  0.40430E-02 -0.43136E-04  0.10154E-02  0.25492E-02  0.42980E-02
  0.60282E-02  0.77155E-02  0.92093E-02  0.10881E-01  0.13627E-01  0.16336E-01
  0.15214E-01  0.86403E-02  0.82377E-03 -0.25953E-02 -0.70948E-03  0.35003E-02
  0.75137E-02  0.10012E-01  0.98121E-02  0.69024E-02  0.33671E-02  0.18207E-02
  0.33671E-02  0.69024E-02  0.98121E-02  0.10012E-01  0.75137E-02  0.35004E-02
 -0.70945E-03 -0.25953E-02  0.82378E-03  0.86403E-02  0.15214E-01  0.16336E-01
  0.13627E-01  0.10881E-01  0.92093E-02  0.77155E-02  0.60282E-02  0.42980E-02
  0.26365E-03  0.11823E-02  0.25957E-02  0.41421E-02  0.54234E-02  0.65273E-02
  0.75772E-02  0.86232E-02  0.98933E-02  0.10902E-01  0.99084E-02  0.60881E-02
  0.15726E-02 -0.55597E-03  0.45706E-03  0.32081E-02  0.62310E-02  0.84122E-02
  0.87071E-02  0.70315E-02  0.47991E-02  0.38012E-02  0.47991E-02  0.70315E-02
  0.87071E-02  0.84122E-02  0.62310E-02  0.32081E-02  0.45709E-03 -0.55594E-03
  0.15726E-02  0.60881E-02  0.99084E-02  0.10902E-01  0.98932E-02  0.86232E-02
  0.75772E-02  0.65273E-02  0.54234E-02  0.41421E-02  0.32363E-03  0.10575E-02
  0.22523E-02  0.35561E-02  0.44765E-02  0.50926E-02  0.57336E-02  0.63822E-02
  0.67910E-02  0.66569E-02  0.55439E-02  0.33919E-02  0.11463E-02  0.12322E-03
  0.77604E-03  0.25728E-02  0.46856E-02  0.62741E-02  0.66310E-02  0.57242E-02
  0.44174E-02  0.38197E-02  0.44174E-02  0.57242E-02  0.66310E-02  0.62741E-02
  0.46856E-02  0.25728E-02  0.77607E-03  0.12325E-03  0.11463E-02  0.33919E-02
  0.55439E-02  0.66569E-02  0.67910E-02  0.63821E-02  0.57336E-02  0.50926E-02
  0.44766E-02  0.35561E-02  0.10606E-03  0.64201E-03  0.16245E-02  0.27068E-02
  0.33754E-02  0.36717E-02  0.39970E-02  0.43785E-02  0.44295E-02  0.39051E-02
  0.29037E-02  0.16781E-02  0.59541E-03  0.13036E-03  0.56209E-03  0.16769E-02
  0.28969E-02  0.36493E-02  0.36091E-02  0.28355E-02  0.18529E-02  0.14046E-02
  0.18529E-02  0.28355E-02  0.36091E-02  0.36493E-02  0.28969E-02  0.16769E-02
  0.56212E-03  0.13038E-03  0.59542E-03  0.16781E-02  0.29037E-02  0.39051E-02
  0.44294E-02  0.43785E-02  0.39969E-02  0.36717E-02  0.33754E-02  0.27068E-02
 -0.38777E-03 -0.81327E-04  0.73221E-03  0.16621E-02  0.22006E-02  0.23823E-02
  0.25706E-02  0.27712E-02  0.26242E-02  0.20172E-02  0.12513E-02  0.59955E-03
  0.12547E-03 -0.56719E-04  0.20594E-03  0.76697E-03  0.12026E-02  0.11626E-02
  0.45924E-03 -0.90976E-03 -0.24288E-02 -0.31144E-02 -0.24288E-02 -0.90976E-03
  0.45924E-03  0.11627E-02  0.12027E-02  0.76699E-03  0.20596E-03 -0.56705E-04
  0.12548E-03  0.59955E-03  0.12513E-02  0.20172E-02  0.26242E-02  0.27711E-02
  0.25706E-02  0.23823E-02  0.22006E-02  0.16621E-02 -0.12150E-02 -0.11434E-02
 -0.41619E-03  0.52635E-03  0.11219E-02  0.13545E-02  0.15333E-02  0.16564E-02
  0.14381E-02  0.86728E-03  0.29493E-03 -0.37195E-04 -0.16914E-03 -0.15139E-03
  0.99138E-05  0.16146E-03  0.50445E-04 -0.59317E-03 -0.21875E-02 -0.49401E-02
 -0.79297E-02 -0.92686E-02 -0.79297E-02 -0.49401E-02 -0.21875E-02 -0.59316E-03
  0.50453E-04  0.16146E-03  0.99222E-05 -0.15138E-03 -0.16914E-03 -0.37195E-04
  0.29493E-03  0.86728E-03  0.14380E-02  0.16564E-02  0.15332E-02  0.13545E-02
  0.11219E-02  0.52635E-03 -0.18456E-02 -0.19355E-02 -0.12806E-02 -0.29869E-03
  0.39499E-03  0.67565E-03  0.80911E-03  0.88453E-03  0.73483E-03  0.34040E-03
 -0.58884E-04 -0.26562E-03 -0.27524E-03 -0.16591E-03 -0.61871E-04 -0.12423E-03
 -0.48250E-03 -0.14443E-02 -0.37213E-02 -0.76539E-02 -0.11885E-01 -0.13765E-01
 -0.11885E-01 -0.76539E-02 -0.37213E-02 -0.14442E-02 -0.48251E-03 -0.12423E-03
 -0.61874E-04 -0.16591E-03 -0.27524E-03 -0.26562E-03 -0.58881E-04  0.34040E-03
  0.73483E-03  0.88453E-03  0.80910E-03  0.67564E-03  0.39498E-03 -0.29869E-03
 -0.14427E-02 -0.15509E-02 -0.11265E-02 -0.43382E-03  0.81555E-04  0.27542E-03
  0.31942E-03  0.34131E-03  0.28794E-03  0.11691E-03 -0.87592E-04 -0.21445E-03
 -0.21870E-03 -0.13628E-03 -0.81967E-04 -0.16962E-03 -0.46196E-03 -0.12099E-02
 -0.30085E-02 -0.61107E-02 -0.94212E-02 -0.10884E-01 -0.94212E-02 -0.61107E-02
 -0.30085E-02 -0.12099E-02 -0.46197E-03 -0.16963E-03 -0.81979E-04 -0.13629E-03
 -0.21870E-03 -0.21445E-03 -0.87584E-04  0.11692E-03  0.28795E-03  0.34132E-03
  0.31942E-03  0.27542E-03  0.81550E-04 -0.43382E-03  0.49066E-08 -0.17847E-09
 -0.64825E-08 -0.56691E-08 -0.27041E-09  0.57978E-09 -0.44989E-08 -0.85720E-08
 -0.79355E-08 -0.52525E-08 -0.28904E-08 -0.49965E-09  0.23363E-08  0.57175E-08
  0.92182E-08  0.99700E-08  0.54771E-08 -0.23371E-09  0.54418E-09  0.76814E-08
  0.11212E-07  0.52306E-08 -0.27810E-08 -0.32609E-08  0.83774E-09 -0.10654E-09
 -0.66359E-08 -0.10627E-07 -0.82892E-08 -0.31863E-08  0.12342E-08  0.44190E-08
  0.63481E-08  0.74606E-08  0.82541E-08  0.70086E-08  0.22603E-08 -0.20483E-08
 -0.42419E-11  0.67238E-08  0.14427E-02  0.15509E-02  0.11265E-02  0.43381E-03
 -0.81553E-04 -0.27542E-03 -0.31943E-03 -0.34133E-03 -0.28795E-03 -0.11692E-03
  0.87587E-04  0.21445E-03  0.21870E-03  0.13629E-03  0.81982E-04  0.16964E-03
  0.46197E-03  0.12099E-02  0.30085E-02  0.61108E-02  0.94212E-02  0.10884E-01
  0.94212E-02  0.61107E-02  0.30085E-02  0.12099E-02  0.46195E-03  0.16962E-03
  0.81966E-04  0.13628E-03  0.21870E-03  0.21446E-03  0.87596E-04 -0.11691E-03
 -0.28794E-03 -0.34131E-03 -0.31942E-03 -0.27542E-03 -0.81552E-04  0.43382E-03
  0.18456E-02  0.19355E-02  0.12806E-02  0.29869E-03 -0.39499E-03 -0.67565E-03
 -0.80911E-03 -0.88454E-03 -0.73483E-03 -0.34040E-03  0.58883E-04  0.26562E-03
  0.27525E-03  0.16592E-03  0.61879E-04  0.12423E-03  0.48251E-03  0.14443E-02
  0.37213E-02  0.76539E-02  0.11885E-01  0.13765E-01  0.11885E-01  0.76539E-02
  0.37213E-02  0.14443E-02  0.48250E-03  0.12422E-03  0.61869E-04  0.16591E-03
  0.27525E-03  0.26563E-03  0.58889E-04 -0.34039E-03 -0.73482E-03 -0.88453E-03
 -0.80910E-03 -0.67565E-03 -0.39499E-03  0.29870E-03  0.12150E-02  0.11434E-02
  0.41619E-03 -0.52635E-03 -0.11219E-02 -0.13545E-02 -0.15333E-02 -0.16564E-02
 -0.14380E-02 -0.86728E-03 -0.29493E-03  0.37200E-04  0.16914E-03  0.15139E-03
 -0.99149E-05 -0.16146E-03 -0.50446E-04  0.59317E-03  0.21875E-02  0.49401E-02
  0.79297E-02  0.92686E-02  0.79297E-02  0.49401E-02  0.21875E-02  0.59317E-03
 -0.50450E-04 -0.16146E-03 -0.99155E-05  0.15139E-03  0.16914E-03  0.37199E-04
 -0.29493E-03 -0.86728E-03 -0.14380E-02 -0.16564E-02 -0.15332E-02 -0.13545E-02
 -0.11219E-02 -0.52635E-03  0.38778E-03  0.81326E-04 -0.73222E-03 -0.16621E-02
 -0.22006E-02 -0.23823E-02 -0.25706E-02 -0.27711E-02 -0.26242E-02 -0.20172E-02
 -0.12513E-02 -0.59954E-03 -0.12547E-03  0.56713E-04 -0.20595E-03 -0.76698E-03
 -0.12027E-02 -0.11626E-02 -0.45924E-03  0.90977E-03  0.24288E-02  0.31144E-02
  0.24288E-02  0.90976E-03 -0.45925E-03 -0.11627E-02 -0.12027E-02 -0.76697E-03
 -0.20595E-03  0.56719E-04 -0.12547E-03 -0.59954E-03 -0.12513E-02 -0.20172E-02
 -0.26242E-02 -0.27712E-02 -0.25706E-02 -0.23823E-02 -0.22006E-02 -0.16621E-02
 -0.10605E-03 -0.64201E-03 -0.16246E-02 -0.27068E-02 -0.33754E-02 -0.36717E-02
 -0.39969E-02 -0.43785E-02 -0.44294E-02 -0.39051E-02 -0.29037E-02 -0.16781E-02
 -0.59541E-03 -0.13037E-03 -0.56211E-03 -0.16769E-02 -0.28969E-02 -0.36493E-02
 -0.36091E-02 -0.28355E-02 -0.18529E-02 -0.14046E-02 -0.18529E-02 -0.28355E-02
 -0.36091E-02 -0.36493E-02 -0.28969E-02 -0.16769E-02 -0.56209E-03 -0.13036E-03
 -0.59541E-03 -0.16781E-02 -0.29037E-02 -0.39051E-02 -0.44295E-02 -0.43785E-02
 -0.39969E-02 -0.36717E-02 -0.33754E-02 -0.27068E-02 -0.32361E-03 -0.10575E-02
 -0.22523E-02 -0.35561E-02 -0.44766E-02 -0.50926E-02 -0.57336E-02 -0.63821E-02
 -0.67910E-02 -0.66569E-02 -0.55439E-02 -0.33919E-02 -0.11463E-02 -0.12324E-03
 -0.77606E-03 -0.25728E-02 -0.46856E-02 -0.62741E-02 -0.66309E-02 -0.57242E-02
 -0.44174E-02 -0.38197E-02 -0.44174E-02 -0.57242E-02 -0.66310E-02 -0.62741E-02
 -0.46856E-02 -0.25728E-02 -0.77604E-03 -0.12323E-03 -0.11463E-02 -0.33919E-02
 -0.55439E-02 -0.66569E-02 -0.67910E-02 -0.63821E-02 -0.57336E-02 -0.50926E-02
 -0.44765E-02 -0.35561E-02 -0.26364E-03 -0.11823E-02 -0.25957E-02 -0.41421E-02
 -0.54234E-02 -0.65273E-02 -0.75772E-02 -0.86232E-02 -0.98932E-02 -0.10902E-01
 -0.99084E-02 -0.60881E-02 -0.15726E-02  0.55594E-03 -0.45709E-03 -0.32081E-02
 -0.62310E-02 -0.84122E-02 -0.87071E-02 -0.70315E-02 -0.47991E-02 -0.38012E-02
 -0.47991E-02 -0.70315E-02 -0.87071E-02 -0.84122E-02 -0.62310E-02 -0.32081E-02
 -0.45707E-03  0.55596E-03 -0.15726E-02 -0.60881E-02 -0.99084E-02 -0.10902E-01
 -0.98932E-02 -0.86232E-02 -0.75772E-02 -0.65273E-02 -0.54233E-02 -0.41421E-02
  0.43139E-04 -0.10154E-02 -0.25492E-02 -0.42980E-02 -0.60283E-02 -0.77155E-02
 -0.92093E-02 -0.10881E-01 -0.13627E-01 -0.16336E-01 -0.15214E-01 -0.86403E-02
 -0.82379E-03  0.25953E-02  0.70945E-03 -0.35003E-02 -0.75137E-02 -0.10012E-01
 -0.98121E-02 -0.69024E-02 -0.33671E-02 -0.18207E-02 -0.33671E-02 -0.69024E-02
 -0.98121E-02 -0.10012E-01 -0.75137E-02 -0.35003E-02  0.70947E-03  0.25953E-02
 -0.82377E-03 -0.86403E-02 -0.15214E-01 -0.16336E-01 -0.13627E-01 -0.10881E-01
 -0.92093E-02 -0.77155E-02 -0.60282E-02 -0.42980E-02 -0.12756E-02 -0.13621E-02
 -0.11164E-02 -0.84194E-03 -0.10517E-02 -0.20016E-02 -0.34563E-02 -0.53371E-02
 -0.74567E-02 -0.78720E-02 -0.38038E-02  0.40569E-02  0.10590E-01  0.11684E-01
  0.84765E-02  0.46093E-02  0.17904E-02 -0.24135E-03 -0.16488E-02 -0.22789E-02
 -0.23625E-02 -0.23308E-02 -0.23625E-02 -0.22789E-02 -0.16488E-02 -0.24135E-03
  0.17904E-02  0.46093E-02  0.84765E-02  0.11684E-01  0.10590E-01  0.40569E-02
 -0.38038E-02 -0.78720E-02 -0.74567E-02 -0.53371E-02 -0.34563E-02 -0.20016E-02
 -0.10517E-02 -0.84194E-03 -0.77871E-03 -0.77022E-03 -0.71184E-03 -0.88348E-03
 -0.15916E-02 -0.28204E-02 -0.42999E-02 -0.63168E-02 -0.91187E-02 -0.10643E-01
 -0.73113E-02  0.89436E-03  0.86395E-02  0.10921E-01  0.82862E-02  0.44937E-02
  0.16293E-02 -0.36271E-03 -0.16263E-02 -0.20706E-02 -0.20103E-02 -0.19272E-02
 -0.20104E-02 -0.20706E-02 -0.16263E-02 -0.36271E-03  0.16293E-02  0.44937E-02
  0.82862E-02  0.10921E-01  0.86395E-02  0.89435E-03 -0.73113E-02 -0.10643E-01
 -0.91187E-02 -0.63168E-02 -0.42999E-02 -0.28204E-02 -0.15916E-02 -0.88348E-03
 -0.46394E-03 -0.79877E-03 -0.11509E-02 -0.15053E-02 -0.20407E-02 -0.28432E-02
 -0.38793E-02 -0.56621E-02 -0.86914E-02 -0.11199E-01 -0.95303E-02 -0.28538E-02
  0.45031E-02  0.77209E-02  0.65886E-02  0.40365E-02  0.18998E-02  0.27149E-03
 -0.84231E-03 -0.12853E-02 -0.12950E-02 -0.12514E-02 -0.12950E-02 -0.12853E-02
 -0.84231E-03  0.27149E-03  0.18998E-02  0.40365E-02  0.65886E-02  0.77209E-02
  0.45030E-02 -0.28538E-02 -0.95303E-02 -0.11199E-01 -0.86914E-02 -0.56621E-02
 -0.38793E-02 -0.28432E-02 -0.20407E-02 -0.15053E-02 -0.75087E-03 -0.14335E-02
 -0.18242E-02 -0.18282E-02 -0.18092E-02 -0.21884E-02 -0.30681E-02 -0.46417E-02
 -0.71274E-02 -0.93058E-02 -0.84954E-02 -0.37858E-02  0.19422E-02  0.50858E-02
  0.51453E-02  0.39262E-02  0.25884E-02  0.12254E-02  0.31044E-04 -0.68018E-03
 -0.96428E-03 -0.10339E-02 -0.96428E-03 -0.68018E-03  0.31048E-04  0.12254E-02
  0.25884E-02  0.39262E-02  0.51453E-02  0.50858E-02  0.19422E-02 -0.37858E-02
 -0.84954E-02 -0.93058E-02 -0.71274E-02 -0.46417E-02 -0.30681E-02 -0.21884E-02
 -0.18092E-02 -0.18282E-02 -0.12468E-02 -0.17219E-02 -0.17343E-02 -0.14302E-02
 -0.12729E-02 -0.16882E-02 -0.26282E-02 -0.37981E-02 -0.50301E-02 -0.57691E-02
 -0.48223E-02 -0.18051E-02  0.17291E-02  0.38213E-02  0.41547E-02  0.36011E-02
  0.26636E-02  0.14166E-02  0.17014E-03 -0.71269E-03 -0.11874E-02 -0.13381E-02
 -0.11873E-02 -0.71269E-03  0.17015E-03  0.14166E-02  0.26636E-02  0.36011E-02
  0.41547E-02  0.38213E-02  0.17291E-02 -0.18051E-02 -0.48223E-02 -0.57691E-02
 -0.50301E-02 -0.37981E-02 -0.26282E-02 -0.16882E-02 -0.12729E-02 -0.14302E-02
 -0.12621E-02 -0.12063E-02 -0.98392E-03 -0.86114E-03 -0.99193E-03 -0.14293E-02
 -0.20084E-02 -0.24098E-02 -0.24666E-02 -0.21286E-02 -0.12002E-02  0.36966E-03
  0.20447E-02  0.31098E-02  0.33884E-02  0.31286E-02  0.25006E-02  0.16207E-02
  0.73376E-03  0.44381E-04 -0.39713E-03 -0.55618E-03 -0.39713E-03  0.44391E-04
  0.73378E-03  0.16208E-02  0.25006E-02  0.31286E-02  0.33884E-02  0.31098E-02
  0.20447E-02  0.36966E-03 -0.12002E-02 -0.21286E-02 -0.24666E-02 -0.24098E-02
 -0.20084E-02 -0.14293E-02 -0.99194E-03 -0.86116E-03 -0.67537E-03 -0.45901E-03
 -0.43392E-03 -0.62478E-03 -0.81266E-03 -0.84634E-03 -0.74031E-03 -0.52819E-03
 -0.22737E-03  0.11979E-03  0.55029E-03  0.12030E-02  0.20720E-02  0.28789E-02
  0.33272E-02  0.33624E-02  0.31118E-02  0.27099E-02  0.22612E-02  0.18695E-02
  0.16161E-02  0.15310E-02  0.16161E-02  0.18695E-02  0.22612E-02  0.27099E-02
  0.31118E-02  0.33625E-02  0.33273E-02  0.28789E-02  0.20720E-02  0.12030E-02
  0.55030E-03  0.11979E-03 -0.22738E-03 -0.52821E-03 -0.74033E-03 -0.84636E-03
 -0.81268E-03 -0.62480E-03 -0.72034E-04 -0.86404E-04 -0.23186E-03 -0.31393E-03
 -0.14912E-03  0.22530E-03  0.57051E-03  0.72365E-03  0.74348E-03  0.78878E-03
  0.10335E-02  0.16473E-02  0.26046E-02  0.35550E-02  0.41204E-02  0.42384E-02
  0.40380E-02  0.36182E-02  0.31984E-02  0.31438E-02  0.34781E-02  0.37028E-02
  0.34781E-02  0.31438E-02  0.31985E-02  0.36182E-02  0.40380E-02  0.42385E-02
  0.41205E-02  0.35550E-02  0.26046E-02  0.16474E-02  0.10335E-02  0.78877E-03
  0.74346E-03  0.72363E-03  0.57048E-03  0.22527E-03 -0.14915E-03 -0.31395E-03
 -0.73834E-04  0.18806E-04  0.27693E-03  0.63563E-03  0.98847E-03  0.12000E-02
  0.11599E-02  0.95551E-03  0.86867E-03  0.11363E-02  0.18141E-02  0.28055E-02
  0.38462E-02  0.45767E-02  0.48147E-02  0.46087E-02  0.39735E-02  0.29972E-02
  0.23061E-02  0.26981E-02  0.39319E-02  0.46240E-02  0.39319E-02  0.26981E-02
  0.23061E-02  0.29972E-02  0.39735E-02  0.46088E-02  0.48147E-02  0.45767E-02
  0.38462E-02  0.28055E-02  0.18141E-02  0.11363E-02  0.86865E-03  0.95548E-03
  0.11599E-02  0.12000E-02  0.98844E-03  0.63561E-03 -0.74795E-03  0.86791E-04
  0.11384E-02  0.17479E-02  0.17633E-02  0.14378E-02  0.10777E-02  0.95407E-03
  0.12740E-02  0.20456E-02  0.30592E-02  0.40175E-02  0.46479E-02  0.48196E-02
  0.45890E-02  0.39631E-02  0.27409E-02  0.97299E-03 -0.55871E-03 -0.94653E-03
 -0.33795E-03  0.99198E-04 -0.33794E-03 -0.94651E-03 -0.55869E-03  0.97302E-03
  0.27409E-02  0.39631E-02  0.45890E-02  0.48197E-02  0.46480E-02  0.40175E-02
  0.30592E-02  0.20456E-02  0.12740E-02  0.95405E-03  0.10777E-02  0.14378E-02
  0.17633E-02  0.17479E-02 -0.18007E-02 -0.26251E-03  0.13117E-02  0.19039E-02
  0.15912E-02  0.11107E-02  0.10047E-02  0.13718E-02  0.20677E-02  0.28737E-02
  0.35891E-02  0.40901E-02  0.43390E-02  0.43611E-02  0.41165E-02  0.33136E-02
  0.15208E-02 -0.14555E-02 -0.54288E-02 -0.98364E-02 -0.13533E-01 -0.15014E-01
 -0.13533E-01 -0.98364E-02 -0.54288E-02 -0.14555E-02  0.15208E-02  0.33136E-02
  0.41165E-02  0.43611E-02  0.43390E-02  0.40901E-02  0.35891E-02  0.28737E-02
  0.20676E-02  0.13718E-02  0.10046E-02  0.11107E-02  0.15912E-02  0.19039E-02
 -0.28338E-02 -0.13739E-02  0.16143E-03  0.89814E-03  0.95022E-03  0.98543E-03
  0.13688E-02  0.19505E-02  0.24466E-02  0.27639E-02  0.30189E-02  0.33747E-02
  0.38833E-02  0.44080E-02  0.45509E-02  0.37023E-02  0.12909E-02 -0.32940E-02
 -0.10938E-01 -0.21563E-01 -0.31888E-01 -0.36303E-01 -0.31888E-01 -0.21563E-01
 -0.10938E-01 -0.32940E-02  0.12909E-02  0.37023E-02  0.45509E-02  0.44080E-02
  0.38833E-02  0.33747E-02  0.30189E-02  0.27639E-02  0.24466E-02  0.19505E-02
  0.13688E-02  0.98543E-03  0.95022E-03  0.89814E-03 -0.32322E-02 -0.25313E-02
 -0.13270E-02 -0.15814E-03  0.69351E-03  0.13171E-02  0.17949E-02  0.20368E-02
  0.20321E-02  0.20281E-02  0.23657E-02  0.31786E-02  0.42785E-02  0.52627E-02
  0.55862E-02  0.46317E-02  0.18406E-02 -0.36874E-02 -0.13563E-01 -0.28035E-01
 -0.42486E-01 -0.48731E-01 -0.42486E-01 -0.28035E-01 -0.13563E-01 -0.36874E-02
  0.18406E-02  0.46317E-02  0.55862E-02  0.52627E-02  0.42785E-02  0.31786E-02
  0.23657E-02  0.20281E-02  0.20321E-02  0.20368E-02  0.17949E-02  0.13171E-02
  0.69353E-03 -0.15813E-03 -0.26186E-02 -0.26226E-02 -0.16660E-02 -0.19973E-03
  0.10038E-02  0.16122E-02  0.17149E-02  0.15235E-02  0.13407E-02  0.15440E-02
  0.23595E-02  0.36336E-02  0.49198E-02  0.58163E-02  0.60417E-02  0.52198E-02
  0.28306E-02 -0.20105E-02 -0.10794E-01 -0.23816E-01 -0.36938E-01 -0.42638E-01
 -0.36938E-01 -0.23816E-01 -0.10794E-01 -0.20105E-02  0.28306E-02  0.52198E-02
  0.60416E-02  0.58163E-02  0.49198E-02  0.36336E-02  0.23595E-02  0.15440E-02
  0.13407E-02  0.15235E-02  0.17150E-02  0.16122E-02  0.10038E-02 -0.19971E-03
 -0.14449E-02 -0.15673E-02 -0.66332E-03  0.62664E-03  0.14262E-02  0.15475E-02
  0.13205E-02  0.10912E-02  0.11164E-02  0.15811E-02  0.24914E-02  0.35970E-02
  0.45632E-02  0.52938E-02  0.58414E-02  0.59121E-02  0.48295E-02  0.18609E-02
 -0.37793E-02 -0.12141E-01 -0.20594E-01 -0.24280E-01 -0.20594E-01 -0.12141E-01
 -0.37794E-02  0.18608E-02  0.48294E-02  0.59121E-02  0.58414E-02  0.52938E-02
  0.45631E-02  0.35970E-02  0.24914E-02  0.15811E-02  0.11164E-02  0.10912E-02
  0.13205E-02  0.15476E-02  0.14262E-02  0.62666E-03 -0.33864E-03 -0.12959E-03
  0.72049E-03  0.14529E-02  0.15913E-02  0.14078E-02  0.13090E-02  0.13686E-02
  0.15104E-02  0.17153E-02  0.20030E-02  0.24100E-02  0.30480E-02  0.41466E-02