       #
       # Generated by the Wannier90 code http://www.wannier.org
       # On 23Sep2015 at 16:17:37 
       #
CRYSTAL
PRIMVEC
   3.8425000   0.0000000   0.0000000
   0.0000000   3.8425000   0.0000000
   0.0000000   0.0000000   3.8425000
CONVVEC
   3.8425000   0.0000000   0.0000000
   0.0000000   3.8425000   0.0000000
   0.0000000   0.0000000   3.8425000
PRIMCOORD
     5  1
V       0.0000000   0.0000000   0.0000000
Sr      1.9212500   1.9212500   1.9212500
O       1.9212500   0.0000000   0.0000000
O       0.0000000   1.9212500   0.0000000
O       0.0000000   0.0000000   1.9212500


BEGIN_BLOCK_DATAGRID_3D
3D_field
BEGIN_DATAGRID_3D_UNKNOWN
    40    40    40
   -4.034625   -4.034625   -4.034625
   7.4928749   0.0000000   0.0000000
   0.0000000   7.4928749   0.0000000
   0.0000000   0.0000000   7.4928749
 -0.72417E-03 -0.55524E-03  0.94575E-04  0.75289E-03  0.96586E-03  0.93745E-03
  0.11697E-02  0.18125E-02  0.26832E-02  0.35493E-02  0.40657E-02  0.38104E-02
  0.26891E-02  0.10337E-02 -0.86324E-03 -0.30201E-02 -0.53972E-02 -0.74738E-02
 -0.84291E-02 -0.77445E-02 -0.56135E-02 -0.29334E-02 -0.90370E-03 -0.30579E-03
 -0.10908E-02 -0.28804E-02 -0.54938E-02 -0.83249E-02 -0.97428E-02 -0.84624E-02
 -0.55977E-02 -0.41049E-02 -0.55977E-02 -0.84624E-02 -0.97428E-02 -0.83249E-02
 -0.54938E-02 -0.28803E-02 -0.10908E-02 -0.30579E-03 -0.56722E-03 -0.28816E-03
  0.28740E-03  0.60189E-03  0.60949E-03  0.76925E-03  0.12634E-02  0.18301E-02
  0.23882E-02  0.31561E-02  0.39668E-02  0.41028E-02  0.31020E-02  0.12759E-02
 -0.74936E-03 -0.25987E-02 -0.41034E-02 -0.50373E-02 -0.51357E-02 -0.43192E-02
 -0.29043E-02 -0.16419E-02 -0.13356E-02 -0.22383E-02 -0.40506E-02 -0.66102E-02
 -0.10211E-01 -0.15223E-01 -0.21759E-01 -0.29280E-01 -0.35840E-01 -0.38523E-01
 -0.35840E-01 -0.29280E-01 -0.21759E-01 -0.15223E-01 -0.10211E-01 -0.66102E-02
 -0.40506E-02 -0.22383E-02 -0.20447E-03  0.79252E-04  0.30380E-03  0.19582E-03
  0.14809E-03  0.53014E-03  0.10687E-02  0.13524E-02  0.15936E-02  0.22803E-02
  0.31851E-02  0.33927E-02  0.24237E-02  0.80208E-03 -0.61585E-03 -0.14269E-02
 -0.16880E-02 -0.15539E-02 -0.11224E-02 -0.49179E-03  0.80652E-04  0.90867E-04
 -0.88066E-03 -0.27102E-02 -0.50026E-02 -0.78280E-02 -0.11882E-01 -0.18382E-01
 -0.28932E-01 -0.43603E-01 -0.57886E-01 -0.63998E-01 -0.57886E-01 -0.43603E-01
 -0.28932E-01 -0.18382E-01 -0.11882E-01 -0.78280E-02 -0.50026E-02 -0.27102E-02
  0.20423E-03  0.28479E-03  0.31431E-04 -0.31779E-03 -0.22962E-03  0.24777E-03
  0.57674E-03  0.58825E-03  0.75000E-03  0.14156E-02  0.21413E-02  0.21383E-02
  0.12977E-02  0.34274E-03 -0.43550E-04  0.16065E-03  0.62342E-03  0.11649E-02
  0.17703E-02  0.23539E-02  0.26346E-02  0.21785E-02  0.73789E-03 -0.14016E-02
 -0.38000E-02 -0.65999E-02 -0.10573E-01 -0.16977E-01 -0.27550E-01 -0.42556E-01
 -0.57379E-01 -0.63767E-01 -0.57379E-01 -0.42556E-01 -0.27550E-01 -0.16977E-01
 -0.10573E-01 -0.65999E-02 -0.38000E-02 -0.14016E-02  0.52569E-03  0.21817E-03
 -0.42556E-03 -0.73041E-03 -0.43650E-03 -0.72007E-04 -0.60630E-04 -0.12155E-03
  0.21241E-03  0.85745E-03  0.12303E-02  0.97994E-03  0.45874E-03  0.30909E-03
  0.69477E-03  0.12266E-02  0.16297E-02  0.20990E-02  0.28635E-02  0.37293E-02
  0.41927E-02  0.37743E-02  0.23174E-02  0.18777E-03 -0.20838E-02 -0.45281E-02
 -0.77848E-02 -0.12682E-01 -0.20155E-01 -0.30283E-01 -0.40140E-01 -0.44378E-01
 -0.40140E-01 -0.30283E-01 -0.20155E-01 -0.12682E-01 -0.77848E-02 -0.45281E-02
 -0.20839E-02  0.18775E-03  0.60273E-03 -0.16452E-03 -0.97518E-03 -0.10657E-02
 -0.68877E-03 -0.56656E-03 -0.70205E-03 -0.54298E-03  0.31094E-04  0.51836E-03
  0.49980E-03  0.17426E-03  0.10241E-03  0.52120E-03  0.10679E-02  0.12922E-02
  0.13157E-02  0.16978E-02  0.26371E-02  0.36378E-02  0.40287E-02  0.34831E-02
  0.20814E-02  0.27813E-03 -0.13484E-02 -0.27205E-02 -0.44128E-02 -0.70449E-02
 -0.10907E-01 -0.15800E-01 -0.20383E-01 -0.22328E-01 -0.20383E-01 -0.15800E-01
 -0.10907E-01 -0.70449E-02 -0.44128E-02 -0.27205E-02 -0.13484E-02  0.27812E-03
  0.34442E-03 -0.82960E-03 -0.15952E-02 -0.15055E-02 -0.12537E-02 -0.13212E-02
 -0.12592E-02 -0.68848E-03 -0.34982E-04  0.12139E-03 -0.14547E-03 -0.25838E-03
  0.12072E-03  0.69417E-03  0.91322E-03  0.68612E-03  0.53215E-03  0.94048E-03
  0.17046E-02  0.20943E-02  0.16489E-02  0.55662E-03 -0.68036E-03 -0.15776E-02
 -0.17717E-02 -0.13090E-02 -0.80226E-03 -0.93481E-03 -0.19070E-02 -0.34361E-02
 -0.49024E-02 -0.55220E-02 -0.49024E-02 -0.34361E-02 -0.19070E-02 -0.93482E-03
 -0.80227E-03 -0.13090E-02 -0.17717E-02 -0.15776E-02 -0.10382E-03 -0.16537E-02
 -0.23901E-02 -0.23013E-02 -0.22222E-02 -0.22055E-02 -0.16622E-02 -0.73855E-03
 -0.25017E-03 -0.42419E-03 -0.62882E-03 -0.30772E-03  0.33807E-03  0.66660E-03
  0.40463E-03 -0.24479E-04 -0.59204E-04  0.24868E-03  0.19280E-03 -0.89080E-03
 -0.28777E-02 -0.47917E-02 -0.55641E-02 -0.48168E-02 -0.28662E-02 -0.28668E-03
  0.22881E-02  0.42737E-02  0.54181E-02  0.59015E-02  0.60569E-02  0.60907E-02
  0.60569E-02  0.59015E-02  0.54181E-02  0.42737E-02  0.22881E-02 -0.28669E-03
 -0.28662E-02 -0.48168E-02 -0.35537E-03 -0.25188E-02 -0.36800E-02 -0.38390E-02
 -0.36366E-02 -0.30406E-02 -0.18915E-02 -0.85504E-03 -0.64271E-03 -0.89681E-03
 -0.74445E-03 -0.47455E-04  0.50674E-03  0.37427E-03 -0.16949E-03 -0.43805E-03
 -0.28631E-03 -0.42157E-03 -0.18057E-02 -0.48627E-02 -0.88855E-02 -0.11967E-01
 -0.12169E-01 -0.92277E-02 -0.46497E-02 -0.46162E-04  0.39349E-02  0.71613E-02
  0.95526E-02  0.11210E-01  0.12290E-01  0.12693E-01  0.12290E-01  0.11210E-01
  0.95526E-02  0.71613E-02  0.39349E-02 -0.46164E-04 -0.46497E-02 -0.92277E-02
  0.59973E-04 -0.31582E-02 -0.54782E-02 -0.61243E-02 -0.53330E-02 -0.36891E-02
 -0.19984E-02 -0.10968E-02 -0.10531E-02 -0.10384E-02 -0.45121E-03  0.29109E-03
  0.42674E-03 -0.65549E-04 -0.46027E-03 -0.31195E-03 -0.13590E-03 -0.95032E-03
 -0.35801E-02 -0.83997E-02 -0.14615E-01 -0.19434E-01 -0.19588E-01 -0.14626E-01
 -0.74576E-02 -0.10875E-02  0.37320E-02  0.74622E-02  0.10322E-01  0.12403E-01
  0.13817E-01  0.14358E-01  0.13817E-01  0.12403E-01  0.10322E-01  0.74622E-02
  0.37320E-02 -0.10875E-02 -0.74576E-02 -0.14626E-01  0.13000E-02 -0.30439E-02
 -0.68646E-02 -0.81018E-02 -0.65708E-02 -0.39277E-02 -0.20186E-02 -0.13962E-02
 -0.12906E-02 -0.80186E-03  0.37398E-04  0.47085E-03  0.14291E-03 -0.33857E-03
 -0.19071E-03  0.39607E-03  0.38189E-03 -0.98395E-03 -0.40411E-02 -0.94563E-02
 -0.17085E-01 -0.23747E-01 -0.24784E-01 -0.19102E-01 -0.10507E-01 -0.31615E-02
  0.20122E-02  0.58969E-02  0.88851E-02  0.11002E-01  0.12379E-01  0.12897E-01
  0.12379E-01  0.11002E-01  0.88851E-02  0.58969E-02  0.20122E-02 -0.31615E-02
 -0.10507E-01 -0.19102E-01  0.27976E-02 -0.19293E-02 -0.66539E-02 -0.83218E-02
 -0.64604E-02 -0.35368E-02 -0.18929E-02 -0.15316E-02 -0.11672E-02 -0.28883E-03
  0.46240E-03  0.43635E-03 -0.87021E-04 -0.16885E-03  0.60944E-03  0.14238E-02
  0.11352E-02 -0.32784E-03 -0.26717E-02 -0.69419E-02 -0.14094E-01 -0.21498E-01
 -0.23957E-01 -0.19537E-01 -0.11753E-01 -0.49303E-02 -0.10938E-03  0.36014E-02
  0.65303E-02  0.85707E-02  0.98295E-02  0.10287E-01  0.98295E-02  0.85707E-02
  0.65303E-02  0.36014E-02 -0.10938E-03 -0.49303E-02 -0.11753E-01 -0.19537E-01
  0.36016E-02 -0.36256E-03 -0.47838E-02 -0.64898E-02 -0.49098E-02 -0.25681E-02
 -0.15176E-02 -0.12674E-02 -0.61164E-03  0.33205E-03  0.68220E-03  0.29307E-03
 -0.48417E-04  0.42822E-03  0.15729E-02  0.23199E-02  0.18990E-02  0.88833E-03
  0.77818E-05 -0.19390E-02 -0.67763E-02 -0.13161E-01 -0.16695E-01 -0.14933E-01
 -0.99608E-02 -0.50679E-02 -0.12906E-02  0.18132E-02  0.43256E-02  0.60830E-02
  0.71558E-02  0.75406E-02  0.71558E-02  0.60830E-02  0.43256E-02  0.18132E-02
 -0.12906E-02 -0.50679E-02 -0.99608E-02 -0.14933E-01  0.33611E-02  0.81513E-03
 -0.24033E-02 -0.37331E-02 -0.26995E-02 -0.13087E-02 -0.85396E-03 -0.58808E-03
  0.20488E-03  0.87394E-03  0.70476E-03  0.16604E-03  0.22458E-03  0.11342E-02
  0.22627E-02  0.27872E-02  0.25779E-02  0.24796E-02  0.31186E-02  0.33547E-02
  0.12191E-02 -0.31194E-02 -0.68405E-02 -0.76321E-02 -0.59165E-02 -0.33895E-02
 -0.95555E-03  0.12136E-02  0.29494E-02  0.41672E-02  0.49414E-02  0.52276E-02
  0.49414E-02  0.41672E-02  0.29494E-02  0.12136E-02 -0.95555E-03 -0.33895E-02
 -0.59165E-02 -0.76321E-02  0.26299E-02  0.13267E-02 -0.58665E-03 -0.13071E-02
 -0.63436E-03 -0.43788E-05  0.62004E-04  0.37823E-03  0.11166E-02  0.13494E-02
  0.71232E-03  0.11610E-03  0.45709E-03  0.15028E-02  0.24161E-02  0.28562E-02
  0.32821E-02  0.44045E-02  0.62916E-02  0.78293E-02  0.74869E-02  0.49967E-02
  0.18184E-02 -0.34098E-03 -0.92843E-03 -0.38240E-03  0.64972E-03  0.16616E-02
  0.24049E-02  0.29228E-02  0.33029E-02  0.34594E-02  0.33028E-02  0.29228E-02
  0.24049E-02  0.16616E-02  0.64972E-03 -0.38240E-03 -0.92843E-03 -0.34098E-03
  0.20815E-02  0.14850E-02  0.50019E-03  0.39831E-03  0.10060E-02  0.12581E-02
  0.12152E-02  0.16322E-02  0.22205E-02  0.19797E-02  0.88807E-03  0.64302E-04
  0.28669E-03  0.11455E-02  0.18886E-02  0.25775E-02  0.39609E-02  0.64232E-02
  0.93979E-02  0.11697E-01  0.12302E-01  0.11054E-01  0.87054E-02  0.63017E-02
  0.45403E-02  0.35740E-02  0.31228E-02  0.27827E-02  0.23891E-02  0.20602E-02
  0.19063E-02  0.18753E-02  0.19063E-02  0.20602E-02  0.23891E-02  0.27827E-02
  0.31228E-02  0.35740E-02  0.45403E-02  0.63017E-02  0.18186E-02  0.15938E-02
  0.12150E-02  0.16161E-02  0.23038E-02  0.25012E-02  0.26438E-02  0.32597E-02
  0.36589E-02  0.29013E-02  0.12241E-02 -0.21211E-03 -0.61752E-03 -0.21033E-03
  0.48761E-03  0.16797E-02  0.40785E-02  0.77304E-02  0.11652E-01  0.14635E-01
  0.16020E-01  0.15804E-01  0.14408E-01  0.12362E-01  0.10104E-01  0.79456E-02
  0.60152E-02  0.42653E-02  0.26703E-02  0.13750E-02  0.56160E-03  0.29230E-03
  0.56159E-03  0.13750E-02  0.26703E-02  0.42653E-02  0.60152E-02  0.79456E-02
  0.10104E-01  0.12362E-01  0.15452E-02  0.16450E-02  0.17704E-02  0.25667E-02
  0.33952E-02  0.37979E-02  0.43582E-02  0.52664E-02  0.56064E-02  0.44924E-02
  0.20133E-02 -0.80505E-03 -0.26545E-02 -0.29763E-02 -0.21308E-02 -0.28330E-03
  0.29375E-02  0.73116E-02  0.11668E-01  0.14979E-01  0.17011E-01  0.17916E-01
  0.17810E-01  0.16720E-01  0.14660E-01  0.11844E-01  0.87263E-02  0.57069E-02
  0.30060E-02  0.85027E-03 -0.50877E-03 -0.96247E-03 -0.50877E-03  0.85027E-03
  0.30060E-02  0.57069E-02  0.87263E-02  0.11844E-01  0.14660E-01  0.16720E-01
  0.10617E-02  0.15123E-02  0.21216E-02  0.32753E-02  0.43597E-02  0.51833E-02
  0.62855E-02  0.77209E-02  0.87116E-02  0.79882E-02  0.43874E-02 -0.14217E-02
 -0.63642E-02 -0.78988E-02 -0.64480E-02 -0.35683E-02  0.25944E-03  0.46881E-02
  0.85852E-02  0.11303E-01  0.13353E-01  0.15301E-01  0.16992E-01  0.17793E-01
  0.17031E-01  0.14502E-01  0.10785E-01  0.68277E-02  0.33534E-02  0.78429E-03
 -0.69385E-03 -0.11542E-02 -0.69386E-03  0.78429E-03  0.33534E-02  0.68277E-02
  0.10785E-01  0.14502E-01  0.17032E-01  0.17793E-01  0.44806E-03  0.12126E-02
  0.22355E-02  0.37339E-02  0.51937E-02  0.65388E-02  0.82328E-02  0.10660E-01
  0.13491E-01  0.14246E-01  0.91305E-02 -0.16628E-02 -0.11723E-01 -0.15068E-01
 -0.12395E-01 -0.78675E-02 -0.34963E-02  0.42273E-03  0.31068E-02  0.44093E-02
  0.57562E-02  0.84093E-02  0.12099E-01  0.15476E-01  0.16961E-01  0.15637E-01
  0.12022E-01  0.76764E-02  0.40137E-02  0.16731E-02  0.58949E-03  0.31643E-03
  0.58948E-03  0.16731E-02  0.40137E-02  0.76764E-02  0.12022E-01  0.15637E-01
  0.16961E-01  0.15476E-01 -0.60414E-04  0.91801E-03  0.22160E-02  0.39849E-02
  0.57956E-02  0.75733E-02  0.97875E-02  0.13414E-01  0.18574E-01  0.21202E-01
  0.14563E-01 -0.15300E-02 -0.17004E-01 -0.22213E-01 -0.18161E-01 -0.11853E-01
 -0.69907E-02 -0.37214E-02 -0.23009E-02 -0.24200E-02 -0.19354E-02  0.10504E-02
  0.62933E-02  0.11915E-01  0.15561E-01  0.15639E-01  0.12536E-01  0.83094E-02
  0.49512E-02  0.32193E-02  0.27424E-02  0.27186E-02  0.27424E-02  0.32193E-02
  0.49512E-02  0.83094E-02  0.12536E-01  0.15639E-01  0.15561E-01  0.11915E-01
 -0.25575E-03  0.79893E-03  0.21929E-02  0.40659E-02  0.60198E-02  0.79653E-02
  0.10398E-01  0.14590E-01  0.20844E-01  0.24341E-01  0.17031E-01 -0.14078E-02
 -0.19272E-01 -0.25301E-01 -0.20629E-01 -0.13523E-01 -0.84470E-02 -0.54682E-02
 -0.45792E-02 -0.52815E-02 -0.51696E-02 -0.20975E-02  0.37230E-02  0.10227E-01
  0.14759E-01  0.15456E-01  0.12641E-01  0.85628E-02  0.54298E-02  0.40264E-02
  0.38422E-02  0.39335E-02  0.38422E-02  0.40264E-02  0.54298E-02  0.85628E-02
  0.12641E-01  0.15456E-01  0.14759E-01  0.10227E-01 -0.60389E-04  0.91803E-03
  0.22160E-02  0.39849E-02  0.57956E-02  0.75733E-02  0.97875E-02  0.13414E-01
  0.18574E-01  0.21202E-01  0.14563E-01 -0.15300E-02 -0.17004E-01 -0.22213E-01
 -0.18161E-01 -0.11853E-01 -0.69908E-02 -0.37214E-02 -0.23009E-02 -0.24200E-02
 -0.19354E-02  0.10504E-02  0.62933E-02  0.11915E-01  0.15561E-01  0.15639E-01
  0.12536E-01  0.83094E-02  0.49512E-02  0.32193E-02  0.27424E-02  0.27186E-02
  0.27424E-02  0.32193E-02  0.49512E-02  0.83094E-02  0.12536E-01  0.15639E-01
  0.15561E-01  0.11915E-01  0.44810E-03  0.12126E-02  0.22355E-02  0.37340E-02
  0.51937E-02  0.65388E-02  0.82328E-02  0.10660E-01  0.13491E-01  0.14246E-01
  0.91305E-02 -0.16628E-02 -0.11723E-01 -0.15068E-01 -0.12395E-01 -0.78675E-02
 -0.34963E-02  0.42271E-03  0.31068E-02  0.44093E-02  0.57562E-02  0.84093E-02
  0.12099E-01  0.15476E-01  0.16961E-01  0.15637E-01  0.12022E-01  0.76764E-02
  0.40137E-02  0.16731E-02  0.58949E-03  0.31644E-03  0.58950E-03  0.16731E-02
  0.40137E-02  0.76764E-02  0.12022E-01  0.15637E-01  0.16961E-01  0.15476E-01
  0.10618E-02  0.15123E-02  0.21216E-02  0.32753E-02  0.43598E-02  0.51833E-02
  0.62856E-02  0.77210E-02  0.87116E-02  0.79883E-02  0.43874E-02 -0.14217E-02
 -0.63642E-02 -0.78988E-02 -0.64481E-02 -0.35683E-02  0.25942E-03  0.46881E-02
  0.85852E-02  0.11303E-01  0.13353E-01  0.15301E-01  0.16992E-01  0.17793E-01
  0.17031E-01  0.14502E-01  0.10785E-01  0.68277E-02  0.33533E-02  0.78428E-03
 -0.69386E-03 -0.11542E-02 -0.69385E-03  0.78429E-03  0.33534E-02  0.68277E-02
  0.10785E-01  0.14502E-01  0.17031E-01  0.17793E-01  0.15453E-02  0.16450E-02
  0.17704E-02  0.25668E-02  0.33953E-02  0.37979E-02  0.43582E-02  0.52665E-02
  0.56064E-02  0.44924E-02  0.20133E-02 -0.80506E-03 -0.26545E-02 -0.29763E-02
 -0.21308E-02 -0.28332E-03  0.29375E-02  0.73116E-02  0.11668E-01  0.14979E-01
  0.17011E-01  0.17916E-01  0.17810E-01  0.16720E-01  0.14660E-01  0.11844E-01
  0.87263E-02  0.57069E-02  0.30059E-02  0.85026E-03 -0.50878E-03 -0.96247E-03
 -0.50877E-03  0.85027E-03  0.30060E-02  0.57069E-02  0.87263E-02  0.11844E-01
  0.14660E-01  0.16720E-01  0.18186E-02  0.15938E-02  0.12150E-02  0.16162E-02
  0.23038E-02  0.25012E-02  0.26438E-02  0.32597E-02  0.36589E-02  0.29013E-02
  0.12241E-02 -0.21212E-03 -0.61753E-03 -0.21034E-03  0.48759E-03  0.16797E-02
  0.40785E-02  0.77304E-02  0.11651E-01  0.14635E-01  0.16020E-01  0.15804E-01
  0.14408E-01  0.12362E-01  0.10104E-01  0.79456E-02  0.60152E-02  0.42653E-02
  0.26703E-02  0.13750E-02  0.56159E-03  0.29229E-03  0.56159E-03  0.13750E-02
  0.26703E-02  0.42653E-02  0.60152E-02  0.79456E-02  0.10104E-01  0.12362E-01
  0.20815E-02  0.14850E-02  0.50020E-03  0.39832E-03  0.10061E-02  0.12581E-02
  0.12152E-02  0.16322E-02  0.22205E-02  0.19797E-02  0.88806E-03  0.64294E-04
  0.28668E-03  0.11455E-02  0.18886E-02  0.25775E-02  0.39609E-02  0.64232E-02
  0.93979E-02  0.11697E-01  0.12302E-01  0.11054E-01  0.87054E-02  0.63017E-02
  0.45403E-02  0.35740E-02  0.31227E-02  0.27827E-02  0.23891E-02  0.20602E-02
  0.19063E-02  0.18753E-02  0.19063E-02  0.20602E-02  0.23891E-02  0.27827E-02
  0.31228E-02  0.35740E-02  0.45403E-02  0.63017E-02  0.26299E-02  0.13267E-02
 -0.58664E-03 -0.13071E-02 -0.63435E-03 -0.43695E-05  0.62013E-04  0.37824E-03
  0.11166E-02  0.13494E-02  0.71232E-03  0.11609E-03  0.45708E-03  0.15028E-02
  0.24161E-02  0.28562E-02  0.32821E-02  0.44045E-02  0.62916E-02  0.78293E-02
  0.74869E-02  0.49967E-02  0.18184E-02 -0.34098E-03 -0.92843E-03 -0.38240E-03
  0.64971E-03  0.16616E-02  0.24049E-02  0.29228E-02  0.33028E-02  0.34594E-02
  0.33028E-02  0.29228E-02  0.24049E-02  0.16616E-02  0.64972E-03 -0.38240E-03
 -0.92843E-03 -0.34099E-03  0.33611E-02  0.81512E-03 -0.24034E-02 -0.37331E-02
 -0.26995E-02 -0.13087E-02 -0.85396E-03 -0.58808E-03  0.20489E-03  0.87394E-03
  0.70476E-03  0.16604E-03  0.22458E-03  0.11342E-02  0.22627E-02  0.27872E-02
  0.25779E-02  0.24796E-02  0.31186E-02  0.33547E-02  0.12191E-02 -0.31194E-02
 -0.68405E-02 -0.76321E-02 -0.59165E-02 -0.33895E-02 -0.95556E-03  0.12136E-02
  0.29494E-02  0.41672E-02  0.49414E-02  0.52276E-02  0.49414E-02  0.41672E-02
  0.29494E-02  0.12136E-02 -0.95556E-03 -0.33895E-02 -0.59165E-02 -0.76321E-02
  0.36016E-02 -0.36259E-03 -0.47838E-02 -0.64898E-02 -0.49098E-02 -0.25681E-02
 -0.15176E-02 -0.12674E-02 -0.61164E-03  0.33205E-03  0.68220E-03  0.29306E-03
 -0.48419E-04  0.42821E-03  0.15729E-02  0.23199E-02  0.18990E-02  0.88833E-03
  0.77822E-05 -0.19390E-02 -0.67762E-02 -0.13161E-01 -0.16695E-01 -0.14933E-01
 -0.99608E-02 -0.50679E-02 -0.12906E-02  0.18132E-02  0.43256E-02  0.60830E-02
  0.71558E-02  0.75406E-02  0.71558E-02  0.60829E-02  0.43256E-02  0.18132E-02
 -0.12906E-02 -0.50679E-02 -0.99608E-02 -0.14933E-01  0.27976E-02 -0.19293E-02
 -0.66539E-02 -0.83218E-02 -0.64604E-02 -0.35368E-02 -0.18929E-02 -0.15316E-02
 -0.11672E-02 -0.28883E-03  0.46240E-03  0.43635E-03 -0.87021E-04 -0.16885E-03
  0.60944E-03  0.14238E-02  0.11352E-02 -0.32784E-03 -0.26717E-02 -0.69419E-02
 -0.14094E-01 -0.21498E-01 -0.23957E-01 -0.19537E-01 -0.11753E-01 -0.49303E-02
 -0.10939E-03  0.36014E-02  0.65303E-02  0.85707E-02  0.98295E-02  0.10287E-01
  0.98295E-02  0.85707E-02  0.65303E-02  0.36014E-02 -0.10939E-03 -0.49303E-02
 -0.11753E-01 -0.19537E-01  0.13000E-02 -0.30439E-02 -0.68646E-02 -0.81018E-02
 -0.65708E-02 -0.39277E-02 -0.20186E-02 -0.13962E-02 -0.12906E-02 -0.80186E-03
  0.37396E-04  0.47085E-03  0.14291E-03 -0.33856E-03 -0.19071E-03  0.39607E-03
  0.38189E-03 -0.98395E-03 -0.40411E-02 -0.94563E-02 -0.17085E-01 -0.23747E-01
 -0.24784E-01 -0.19102E-01 -0.10507E-01 -0.31615E-02  0.20122E-02  0.58969E-02
  0.88851E-02  0.11002E-01  0.12379E-01  0.12897E-01  0.12379E-01  0.11002E-01
  0.88851E-02  0.58969E-02  0.20122E-02 -0.31615E-02 -0.10507E-01 -0.19102E-01
  0.59963E-04 -0.31582E-02 -0.54782E-02 -0.61243E-02 -0.53330E-02 -0.36891E-02
 -0.19984E-02 -0.10968E-02 -0.10531E-02 -0.10384E-02 -0.45121E-03  0.29109E-03
  0.42674E-03 -0.65546E-04 -0.46027E-03 -0.31195E-03 -0.13590E-03 -0.95032E-03
 -0.35801E-02 -0.83997E-02 -0.14615E-01 -0.19434E-01 -0.19588E-01 -0.14626E-01
 -0.74576E-02 -0.10875E-02  0.37320E-02  0.74622E-02  0.10322E-01  0.12403E-01
  0.13817E-01  0.14358E-01  0.13817E-01  0.12403E-01  0.10322E-01  0.74622E-02
  0.37320E-02 -0.10875E-02 -0.74576E-02 -0.14626E-01 -0.35537E-03 -0.25188E-02
 -0.36800E-02 -0.38391E-02 -0.36366E-02 -0.30406E-02 -0.18915E-02 -0.85503E-03
 -0.64271E-03 -0.89680E-03 -0.74445E-03 -0.47450E-04  0.50675E-03  0.37428E-03
 -0.16949E-03 -0.43806E-03 -0.28631E-03 -0.42157E-03 -0.18057E-02 -0.48627E-02
 -0.88855E-02 -0.11967E-01 -0.12169E-01 -0.92277E-02 -0.46497E-02 -0.46170E-04
  0.39349E-02  0.71613E-02  0.95526E-02  0.11210E-01  0.12290E-01  0.12693E-01
  0.12290E-01  0.11210E-01  0.95526E-02  0.71613E-02  0.39349E-02 -0.46165E-04
 -0.46497E-02 -0.92277E-02 -0.10381E-03 -0.16537E-02 -0.23901E-02 -0.23013E-02
 -0.22223E-02 -0.22055E-02 -0.16622E-02 -0.73854E-03 -0.25016E-03 -0.42418E-03
 -0.62882E-03 -0.30771E-03  0.33808E-03  0.66660E-03  0.40463E-03 -0.24482E-04
 -0.59207E-04  0.24868E-03  0.19281E-03 -0.89080E-03 -0.28777E-02 -0.47917E-02
 -0.55641E-02 -0.48168E-02 -0.28662E-02 -0.28669E-03  0.22880E-02  0.42737E-02
  0.54181E-02  0.59015E-02  0.60569E-02  0.60907E-02  0.60569E-02  0.59015E-02
  0.54181E-02  0.42737E-02  0.22881E-02 -0.28669E-03 -0.28662E-02 -0.48168E-02
  0.34443E-03 -0.82960E-03 -0.15952E-02 -0.15055E-02 -0.12537E-02 -0.13212E-02
 -0.12592E-02 -0.68847E-03 -0.34972E-04  0.12140E-03 -0.14546E-03 -0.25837E-03
  0.12072E-03  0.69417E-03  0.91322E-03  0.68612E-03  0.53215E-03  0.94048E-03
  0.17046E-02  0.20943E-02  0.16489E-02  0.55661E-03 -0.68037E-03 -0.15776E-02
 -0.17717E-02 -0.13090E-02 -0.80228E-03 -0.93482E-03 -0.19070E-02 -0.34361E-02
 -0.49024E-02 -0.55220E-02 -0.49024E-02 -0.34361E-02 -0.19070E-02 -0.93482E-03
 -0.80227E-03 -0.13090E-02 -0.17717E-02 -0.15776E-02  0.60274E-03 -0.16452E-03
 -0.97518E-03 -0.10657E-02 -0.68878E-03 -0.56657E-03 -0.70205E-03 -0.54297E-03
  0.31105E-04  0.51837E-03  0.49981E-03  0.17427E-03  0.10241E-03  0.52120E-03
  0.10679E-02  0.12922E-02  0.13157E-02  0.16978E-02  0.26371E-02  0.36378E-02
  0.40287E-02  0.34831E-02  0.20814E-02  0.27811E-03 -0.13484E-02 -0.27205E-02
 -0.44128E-02 -0.70449E-02 -0.10907E-01 -0.15800E-01 -0.20383E-01 -0.22328E-01
 -0.20383E-01 -0.15800E-01 -0.10907E-01 -0.70449E-02 -0.44128E-02 -0.27205E-02
 -0.13484E-02  0.27813E-03  0.52569E-03  0.21816E-03 -0.42556E-03 -0.73041E-03
 -0.43650E-03 -0.72014E-04 -0.60632E-04 -0.12155E-03  0.21242E-03  0.85745E-03
  0.12304E-02  0.97995E-03  0.45874E-03  0.30909E-03  0.69477E-03  0.12266E-02
  0.16297E-02  0.20991E-02  0.28635E-02  0.37293E-02  0.41927E-02  0.37743E-02
  0.23174E-02  0.18775E-03 -0.20839E-02 -0.45281E-02 -0.77848E-02 -0.12682E-01
 -0.20155E-01 -0.30283E-01 -0.40140E-01 -0.44378E-01 -0.40140E-01 -0.30283E-01
 -0.20155E-01 -0.12682E-01 -0.77848E-02 -0.45281E-02 -0.20838E-02  0.18776E-03
  0.20422E-03  0.28479E-03  0.31435E-04 -0.31778E-03 -0.22962E-03  0.24776E-03
  0.57674E-03  0.58825E-03  0.75001E-03  0.14156E-02  0.21413E-02  0.21383E-02
  0.12977E-02  0.34273E-03 -0.43550E-04  0.16065E-03  0.62343E-03  0.11649E-02
  0.17703E-02  0.23539E-02  0.26346E-02  0.21784E-02  0.73787E-03 -0.14016E-02
 -0.38001E-02 -0.65999E-02 -0.10573E-01 -0.16977E-01 -0.27550E-01 -0.42556E-01
 -0.57379E-01 -0.63767E-01 -0.57379E-01 -0.42556E-01 -0.27550E-01 -0.16977E-01
 -0.10573E-01 -0.65999E-02 -0.38000E-02 -0.14016E-02 -0.48148E-03 -0.23467E-03
  0.28541E-03  0.55773E-03  0.54744E-03  0.67954E-03  0.11273E-02  0.16355E-02
  0.20578E-02  0.25406E-02  0.30171E-02  0.29963E-02  0.21078E-02  0.54992E-03
 -0.11952E-02 -0.28382E-02 -0.42590E-02 -0.51977E-02 -0.52811E-02 -0.44049E-02
 -0.29766E-02 -0.17757E-02 -0.15281E-02 -0.24719E-02 -0.43978E-02 -0.71892E-02
 -0.11126E-01 -0.16715E-01 -0.24400E-01 -0.33745E-01 -0.42178E-01 -0.45676E-01
 -0.42178E-01 -0.33745E-01 -0.24400E-01 -0.16715E-01 -0.11126E-01 -0.71892E-02
 -0.43978E-02 -0.24719E-02 -0.23879E-03  0.23771E-04  0.23990E-03  0.18785E-03
  0.23352E-03  0.65409E-03  0.11517E-02  0.13916E-02  0.16218E-02  0.22444E-02
  0.29511E-02  0.28835E-02  0.17016E-02  0.68322E-05 -0.13994E-02 -0.22684E-02
 -0.27892E-02 -0.30974E-02 -0.31372E-02 -0.28715E-02 -0.25228E-02 -0.25904E-02
 -0.34717E-02 -0.50984E-02 -0.72776E-02 -0.10292E-01 -0.15013E-01 -0.23189E-01
 -0.37480E-01 -0.58269E-01 -0.78906E-01 -0.87794E-01 -0.78906E-01 -0.58269E-01
 -0.37480E-01 -0.23189E-01 -0.15013E-01 -0.10292E-01 -0.72776E-02 -0.50984E-02
  0.18587E-03  0.23060E-03 -0.18691E-04 -0.26608E-03 -0.36130E-04  0.51018E-03
  0.82476E-03  0.84671E-03  0.10823E-02  0.17422E-02  0.22281E-02  0.18115E-02
  0.61413E-03 -0.49967E-03 -0.94084E-03 -0.89454E-03 -0.81374E-03 -0.85461E-03
 -0.91797E-03 -0.94539E-03 -0.11121E-02 -0.18196E-02 -0.33051E-02 -0.53231E-02
 -0.76609E-02 -0.10789E-01 -0.15854E-01 -0.25230E-01 -0.42807E-01 -0.69558E-01
 -0.96719E-01 -0.10852E+00 -0.96719E-01 -0.69558E-01 -0.42807E-01 -0.25230E-01
 -0.15854E-01 -0.10789E-01 -0.76609E-02 -0.53231E-02  0.54750E-03  0.19023E-03
 -0.42707E-03 -0.61888E-03 -0.21041E-03  0.20559E-03  0.24855E-03  0.26941E-03
  0.67240E-03  0.12046E-02  0.12353E-02  0.59135E-03 -0.16005E-03 -0.36083E-03
 -0.16807E-04  0.34319E-03  0.44984E-03  0.54684E-03  0.86472E-03  0.12283E-02
  0.11894E-02  0.29803E-03 -0.15425E-02 -0.38741E-02 -0.62947E-02 -0.92077E-02
 -0.13694E-01 -0.21726E-01 -0.36572E-01 -0.59283E-01 -0.82553E-01 -0.92723E-01
 -0.82553E-01 -0.59283E-01 -0.36572E-01 -0.21726E-01 -0.13694E-01 -0.92077E-02
 -0.62948E-02 -0.38741E-02  0.68625E-03 -0.70805E-04 -0.77319E-03 -0.74609E-03
 -0.33153E-03 -0.22374E-03 -0.33397E-03 -0.10602E-03  0.44624E-03  0.71819E-03
  0.39320E-03 -0.13410E-03 -0.25913E-03  0.12932E-03  0.56919E-03  0.66190E-03
  0.65475E-03  0.11266E-02  0.21313E-02  0.30169E-02  0.30650E-02  0.19674E-02
 -0.75541E-04 -0.23700E-02 -0.43009E-02 -0.61485E-02 -0.89156E-02 -0.13845E-01
 -0.22604E-01 -0.35788E-01 -0.49345E-01 -0.55303E-01 -0.49345E-01 -0.35788E-01
 -0.22604E-01 -0.13845E-01 -0.89157E-02 -0.61485E-02 -0.43009E-02 -0.23700E-02
  0.52763E-03 -0.46962E-03 -0.10182E-02 -0.85114E-03 -0.65976E-03 -0.78586E-03
 -0.72863E-03 -0.19322E-03  0.30805E-03  0.24054E-03 -0.18135E-03 -0.34286E-03
 -0.34073E-04  0.36546E-03  0.42260E-03  0.22871E-03  0.37987E-03  0.12872E-02
  0.25439E-02  0.32264E-02  0.27981E-02  0.14302E-02 -0.32216E-03 -0.17237E-02
 -0.22005E-02 -0.20336E-02 -0.22772E-02 -0.38392E-02 -0.72097E-02 -0.12384E-01
 -0.17750E-01 -0.20128E-01 -0.17750E-01 -0.12384E-01 -0.72097E-02 -0.38392E-02
 -0.22772E-02 -0.20336E-02 -0.22005E-02 -0.17238E-02  0.12404E-03 -0.95787E-03
 -0.13422E-02 -0.12759E-02 -0.13833E-02 -0.14372E-02 -0.91986E-03 -0.16884E-03
  0.52564E-04 -0.28061E-03 -0.49980E-03 -0.23908E-03  0.15199E-03  0.17375E-03
 -0.15263E-03 -0.29815E-03  0.16977E-03  0.10598E-02  0.16255E-02  0.12227E-02
 -0.51596E-04 -0.14582E-02 -0.22395E-02 -0.19219E-02 -0.34610E-03  0.20602E-02
  0.43036E-02  0.55648E-02  0.56694E-02  0.48517E-02  0.36974E-02  0.31407E-02
  0.36974E-02  0.48517E-02  0.56694E-02  0.55648E-02  0.43036E-02  0.20602E-02
 -0.34611E-03 -0.19219E-02 -0.30178E-03 -0.15594E-02 -0.20933E-02 -0.23127E-02
 -0.24590E-02 -0.20513E-02 -0.10462E-02 -0.32418E-03 -0.41488E-03 -0.72075E-03
 -0.52173E-03 -0.65961E-05  0.13668E-03 -0.27071E-03 -0.67427E-03 -0.51036E-03
  0.63403E-04  0.28259E-03 -0.50805E-03 -0.23323E-02 -0.44925E-02 -0.58410E-02
 -0.54384E-02 -0.31507E-02  0.43794E-03  0.45370E-02  0.84561E-02  0.11706E-01
  0.14075E-01  0.15591E-01  0.16391E-01  0.16633E-01  0.16391E-01  0.15591E-01
  0.14075E-01  0.11706E-01  0.84561E-02  0.45370E-02  0.43793E-03 -0.31507E-02
 -0.40447E-03 -0.23707E-02 -0.37291E-02 -0.42787E-02 -0.38844E-02 -0.26239E-02
 -0.12830E-02 -0.75278E-03 -0.89691E-03 -0.82577E-03 -0.26243E-03  0.13709E-03
 -0.14440E-03 -0.71968E-03 -0.82007E-03 -0.33436E-03 -0.50165E-04 -0.83495E-03
 -0.29153E-02 -0.59982E-02 -0.93372E-02 -0.11399E-01 -0.10516E-01 -0.65249E-02
 -0.10162E-02  0.43993E-02  0.92676E-02  0.13676E-01  0.17493E-01  0.20475E-01
  0.22436E-01  0.23138E-01  0.22436E-01  0.20475E-01  0.17493E-01  0.13676E-01
  0.92676E-02  0.43993E-02 -0.10162E-02 -0.65249E-02  0.21204E-03 -0.31984E-02
 -0.61560E-02 -0.70301E-02 -0.55695E-02 -0.32353E-02 -0.17062E-02 -0.12992E-02
 -0.11271E-02 -0.54638E-03  0.60232E-04  0.22141E-04 -0.55905E-03 -0.86914E-03
 -0.43602E-03  0.15975E-03 -0.12426E-03 -0.16708E-02 -0.42913E-02 -0.81827E-02
 -0.13298E-01 -0.17525E-01 -0.17548E-01 -0.12496E-01 -0.50395E-02  0.18798E-02
  0.76283E-02  0.12761E-01  0.17321E-01  0.20988E-01  0.23485E-01  0.24405E-01
  0.23485E-01  0.20988E-01  0.17321E-01  0.12761E-01  0.76283E-02  0.18798E-02
 -0.50395E-02 -0.12496E-01  0.16661E-02 -0.33582E-02 -0.81092E-02 -0.92959E-02
 -0.68299E-02 -0.37187E-02 -0.21838E-02 -0.17228E-02 -0.10469E-02 -0.14560E-03
  0.16651E-03 -0.29191E-03 -0.76765E-03 -0.48599E-03  0.39289E-03  0.80953E-03
  0.12139E-04 -0.15798E-02 -0.36234E-02 -0.74521E-02 -0.14233E-01 -0.21339E-01
 -0.23465E-01 -0.18506E-01 -0.97920E-02 -0.15768E-02  0.49889E-02  0.10605E-01
  0.15430E-01  0.19177E-01  0.21679E-01  0.22599E-01  0.21679E-01  0.19177E-01
  0.15430E-01  0.10605E-01  0.49889E-02 -0.15768E-02 -0.97920E-02 -0.18506E-01
  0.33299E-02 -0.24051E-02 -0.80874E-02 -0.94723E-02 -0.67493E-02 -0.37093E-02
 -0.24276E-02 -0.17925E-02 -0.71836E-03  0.13149E-03  0.12656E-04 -0.53881E-03
 -0.51545E-03  0.33885E-03  0.13155E-02  0.14296E-02  0.56453E-03 -0.25702E-03
 -0.81522E-03 -0.34560E-02 -0.10453E-01 -0.19277E-01 -0.23593E-01 -0.20166E-01
 -0.12040E-01 -0.39057E-02  0.26188E-02  0.80621E-02  0.12588E-01  0.15971E-01
  0.18158E-01  0.18953E-01  0.18158E-01  0.15971E-01  0.12588E-01  0.80621E-02
  0.26188E-02 -0.39057E-02 -0.12040E-01 -0.20166E-01  0.41515E-02 -0.86352E-03
 -0.60235E-02 -0.73429E-02 -0.52313E-02 -0.30908E-02 -0.22225E-02 -0.13961E-02
 -0.21757E-03  0.25965E-03 -0.20000E-03 -0.49014E-03  0.13811E-03  0.12424E-02
  0.19758E-02  0.19612E-02  0.16688E-02  0.21011E-02  0.31359E-02  0.22211E-02
 -0.32186E-02 -0.11432E-01 -0.16789E-01 -0.15736E-01 -0.10136E-01 -0.38688E-02
  0.13375E-02  0.56235E-02  0.90841E-02  0.11603E-01  0.13205E-01  0.13784E-01
  0.13205E-01  0.11603E-01  0.90841E-02  0.56235E-02  0.13375E-02 -0.38688E-02
 -0.10136E-01 -0.15736E-01  0.37625E-02  0.32890E-03 -0.33016E-02 -0.42691E-02
 -0.31079E-02 -0.20924E-02 -0.15823E-02 -0.65975E-03  0.31073E-03  0.30405E-03
 -0.28524E-03 -0.16676E-03  0.86920E-03  0.18849E-02  0.23108E-02  0.25487E-02
  0.33273E-02  0.50140E-02  0.69887E-02  0.72826E-02  0.40185E-02 -0.19093E-02
 -0.67998E-02 -0.77751E-02 -0.53704E-02 -0.19167E-02  0.11509E-02  0.36007E-02
  0.54595E-02  0.67675E-02  0.76064E-02  0.79154E-02  0.76064E-02  0.67675E-02
  0.54595E-02  0.36007E-02  0.11509E-02 -0.19167E-02 -0.53704E-02 -0.77751E-02
  0.28350E-02  0.85229E-03 -0.11898E-02 -0.16617E-02 -0.12033E-02 -0.97823E-03
 -0.65927E-03  0.21265E-03  0.79454E-03  0.37964E-03 -0.20304E-03  0.16000E-03
  0.12305E-02  0.20195E-02  0.24220E-02  0.33468E-02  0.53933E-02  0.80964E-02
  0.10365E-01  0.11055E-01  0.94326E-02  0.59458E-02  0.23539E-02  0.34376E-03
  0.14758E-03  0.85013E-03  0.15747E-02  0.19937E-02  0.21473E-02  0.22033E-02
  0.22704E-02  0.23105E-02  0.22704E-02  0.22033E-02  0.21473E-02  0.19937E-02
  0.15747E-02  0.85012E-03  0.14758E-03  0.34376E-03  0.21602E-02  0.10297E-02
  0.72763E-04  0.53845E-04  0.20870E-03  0.10676E-03  0.42365E-03  0.12000E-02
  0.13831E-02  0.63197E-03 -0.55681E-04  0.12564E-03  0.81300E-03  0.13920E-02