       #
       # Generated by the Wannier90 code http://www.wannier.org
       # On 23Sep2015 at 16:17:37 
       #
CRYSTAL
PRIMVEC
   3.8425000   0.0000000   0.0000000
   0.0000000   3.8425000   0.0000000
   0.0000000   0.0000000   3.8425000
CONVVEC
   3.8425000   0.0000000   0.0000000
   0.0000000   3.8425000   0.0000000
   0.0000000   0.0000000   3.8425000
PRIMCOORD
     5  1
V       0.0000000   0.0000000   0.0000000
Sr      1.9212500   1.9212500   1.9212500
O       1.9212500   0.0000000   0.0000000
O       0.0000000   1.9212500   0.0000000
O       0.0000000   0.0000000   1.9212500


BEGIN_BLOCK_DATAGRID_3D
3D_field
BEGIN_DATAGRID_3D_UNKNOWN
    40    40    40
   -4.034625   -4.034625   -4.034625
   7.4928749   0.0000000   0.0000000
   0.0000000   7.4928749   0.0000000
   0.0000000   0.0000000   7.4928749
  0.17180E-02  0.11647E-02  0.72116E-03  0.72188E-03  0.11708E-02  0.18466E-02
  0.26943E-02  0.40137E-02  0.64157E-02  0.10272E-01  0.14590E-01  0.16910E-01
  0.15445E-01  0.11141E-01  0.66578E-02  0.36470E-02  0.19694E-02  0.96204E-03
  0.31796E-03 -0.33654E-04 -0.11674E-03 -0.43580E-08  0.11673E-03  0.33650E-04
 -0.31796E-03 -0.96205E-03 -0.19694E-02 -0.36470E-02 -0.66578E-02 -0.11141E-01
 -0.15445E-01 -0.16910E-01 -0.14590E-01 -0.10272E-01 -0.64157E-02 -0.40137E-02
 -0.26943E-02 -0.18465E-02 -0.11708E-02 -0.72186E-03  0.11648E-02  0.79519E-03
  0.63400E-03  0.90153E-03  0.13696E-02  0.17136E-02  0.19583E-02  0.23341E-02
  0.30463E-02  0.43052E-02  0.59972E-02  0.72248E-02  0.69547E-02  0.52759E-02
  0.32968E-02  0.18195E-02  0.83576E-03  0.13728E-03 -0.31349E-03 -0.49383E-03
 -0.37191E-03 -0.33421E-08  0.37190E-03  0.49383E-03  0.31349E-03 -0.13728E-03
 -0.83577E-03 -0.18195E-02 -0.32968E-02 -0.52759E-02 -0.69547E-02 -0.72248E-02
 -0.59972E-02 -0.43052E-02 -0.30463E-02 -0.23341E-02 -0.19583E-02 -0.17136E-02
 -0.13696E-02 -0.90151E-03  0.72117E-03  0.63400E-03  0.83777E-03  0.13098E-02
  0.16392E-02  0.15418E-02  0.11667E-02  0.62170E-03 -0.37934E-03 -0.19053E-02
 -0.32185E-02 -0.34240E-02 -0.25007E-02 -0.12287E-02 -0.35425E-03 -0.14280E-03
 -0.42884E-03 -0.83773E-03 -0.10791E-02 -0.10415E-02 -0.66442E-03 -0.11156E-08
  0.66442E-03  0.10415E-02  0.10791E-02  0.83772E-03  0.42883E-03  0.14278E-03
  0.35423E-03  0.12286E-02  0.25007E-02  0.34240E-02  0.32185E-02  0.19053E-02
  0.37935E-03 -0.62169E-03 -0.11667E-02 -0.15418E-02 -0.16391E-02 -0.13098E-02
  0.72189E-03  0.90154E-03  0.13098E-02  0.17259E-02  0.17612E-02  0.12870E-02
  0.53639E-03 -0.40329E-03 -0.19876E-02 -0.45305E-02 -0.71306E-02 -0.81072E-02
 -0.68107E-02 -0.43564E-02 -0.23620E-02 -0.15208E-02 -0.15068E-02 -0.17144E-02
 -0.17787E-02 -0.15515E-02 -0.93789E-03 -0.15502E-09  0.93789E-03  0.15515E-02
  0.17787E-02  0.17144E-02  0.15068E-02  0.15208E-02  0.23620E-02  0.43564E-02
  0.68107E-02  0.81072E-02  0.71306E-02  0.45305E-02  0.19876E-02  0.40330E-03
 -0.53638E-03 -0.12870E-02 -0.17612E-02 -0.17259E-02  0.11708E-02  0.13696E-02
  0.16392E-02  0.17612E-02  0.15550E-02  0.10117E-02  0.27348E-03 -0.55625E-03
 -0.17343E-02 -0.35997E-02 -0.56350E-02 -0.65115E-02 -0.56200E-02 -0.38767E-02
 -0.25783E-02 -0.21368E-02 -0.22127E-02 -0.24097E-02 -0.24711E-02 -0.21569E-02
 -0.12946E-02 -0.10444E-08  0.12946E-02  0.21569E-02  0.24711E-02  0.24097E-02
  0.22127E-02  0.21368E-02  0.25783E-02  0.38767E-02  0.56200E-02  0.65115E-02
  0.56350E-02  0.35997E-02  0.17343E-02  0.55626E-03 -0.27347E-03 -0.10116E-02
 -0.15550E-02 -0.17612E-02  0.18466E-02  0.17136E-02  0.15418E-02  0.12870E-02
  0.10117E-02  0.72845E-03  0.34637E-03 -0.12623E-03 -0.69888E-03 -0.15282E-02
 -0.24613E-02 -0.29025E-02 -0.26177E-02 -0.21209E-02 -0.19549E-02 -0.21747E-02
 -0.26338E-02 -0.31813E-02 -0.34966E-02 -0.31381E-02 -0.18877E-02 -0.22554E-08
  0.18877E-02  0.31381E-02  0.34966E-02  0.31813E-02  0.26338E-02  0.21747E-02
  0.19549E-02  0.21209E-02  0.26177E-02  0.29025E-02  0.24613E-02  0.15282E-02
  0.69889E-03  0.12624E-03 -0.34636E-03 -0.72844E-03 -0.10117E-02 -0.12870E-02
  0.26943E-02  0.19583E-02  0.11667E-02  0.53640E-03  0.27349E-03  0.34637E-03
  0.49378E-03  0.55630E-03  0.53362E-03  0.41603E-03  0.24195E-03  0.98992E-04
 -0.78150E-04 -0.44048E-03 -0.10366E-02 -0.19232E-02 -0.31541E-02 -0.44575E-02
 -0.52088E-02 -0.47855E-02 -0.29177E-02 -0.25619E-08  0.29177E-02  0.47855E-02
  0.52088E-02  0.44575E-02  0.31541E-02  0.19232E-02  0.10366E-02  0.44048E-03
  0.78150E-04 -0.98989E-04 -0.24194E-03 -0.41603E-03 -0.53361E-03 -0.55630E-03
 -0.49377E-03 -0.34637E-03 -0.27349E-03 -0.53640E-03  0.40137E-02  0.23342E-02
  0.62172E-03 -0.40328E-03 -0.55624E-03 -0.12623E-03  0.55631E-03  0.12777E-02
  0.18694E-02  0.22765E-02  0.25273E-02  0.24882E-02  0.19849E-02  0.11181E-02
 -0.47083E-04 -0.17874E-02 -0.41275E-02 -0.64503E-02 -0.79704E-02 -0.78188E-02
 -0.50571E-02 -0.35806E-08  0.50571E-02  0.78188E-02  0.79704E-02  0.64503E-02
  0.41275E-02  0.17874E-02  0.47083E-04 -0.11181E-02 -0.19849E-02 -0.24882E-02
 -0.25273E-02 -0.22765E-02 -0.18694E-02 -0.12777E-02 -0.55630E-03  0.12623E-03
  0.55624E-03  0.40328E-03  0.64157E-02  0.30463E-02 -0.37932E-03 -0.19875E-02
 -0.17343E-02 -0.69888E-03  0.53362E-03  0.18694E-02  0.30520E-02  0.38907E-02
  0.43979E-02  0.43714E-02  0.36266E-02  0.23745E-02  0.58998E-03 -0.21411E-02
 -0.56449E-02 -0.92880E-02 -0.12581E-01 -0.13742E-01 -0.95772E-02 -0.73786E-08
  0.95772E-02  0.13742E-01  0.12581E-01  0.92880E-02  0.56449E-02  0.21411E-02
 -0.58998E-03 -0.23745E-02 -0.36266E-02 -0.43714E-02 -0.43979E-02 -0.38907E-02
 -0.30520E-02 -0.18694E-02 -0.53362E-03  0.69888E-03  0.17343E-02  0.19875E-02
  0.10272E-01  0.43052E-02 -0.19053E-02 -0.45305E-02 -0.35997E-02 -0.15282E-02
  0.41604E-03  0.22765E-02  0.38907E-02  0.49986E-02  0.56198E-02  0.55712E-02
  0.46751E-02  0.31116E-02  0.70916E-03 -0.29337E-02 -0.75324E-02 -0.13038E-01
 -0.19525E-01 -0.23193E-01 -0.16889E-01 -0.10883E-07  0.16889E-01  0.23193E-01
  0.19525E-01  0.13038E-01  0.75324E-02  0.29337E-02 -0.70916E-03 -0.31116E-02
 -0.46751E-02 -0.55712E-02 -0.56198E-02 -0.49986E-02 -0.38907E-02 -0.22765E-02
 -0.41603E-03  0.15282E-02  0.35997E-02  0.45305E-02  0.14590E-01  0.59972E-02
 -0.32185E-02 -0.71306E-02 -0.56350E-02 -0.24613E-02  0.24195E-03  0.25273E-02
  0.43980E-02  0.56198E-02  0.62528E-02  0.61686E-02  0.51929E-02  0.34212E-02
  0.56126E-03 -0.37414E-02 -0.92767E-02 -0.16806E-01 -0.26817E-01 -0.33124E-01
 -0.24509E-01 -0.77798E-08  0.24509E-01  0.33124E-01  0.26817E-01  0.16806E-01
  0.92767E-02  0.37414E-02 -0.56126E-03 -0.34212E-02 -0.51928E-02 -0.61686E-02
 -0.62528E-02 -0.56198E-02 -0.43979E-02 -0.25273E-02 -0.24194E-03  0.24613E-02
  0.56350E-02  0.71306E-02  0.16910E-01  0.72248E-02 -0.34240E-02 -0.81072E-02
 -0.65115E-02 -0.29025E-02  0.98997E-04  0.24882E-02  0.43714E-02  0.55712E-02
  0.61686E-02  0.60436E-02  0.50197E-02  0.31708E-02  0.17644E-03 -0.43117E-02
 -0.10187E-01 -0.18603E-01 -0.30165E-01 -0.37578E-01 -0.27884E-01  0.17820E-08
  0.27884E-01  0.37578E-01  0.30165E-01  0.18603E-01  0.10187E-01  0.43117E-02
 -0.17644E-03 -0.31708E-02 -0.50197E-02 -0.60436E-02 -0.61686E-02 -0.55712E-02
 -0.43714E-02 -0.24882E-02 -0.98987E-04  0.29026E-02  0.65115E-02  0.81072E-02
  0.15445E-01  0.69547E-02 -0.25007E-02 -0.68107E-02 -0.56201E-02 -0.26177E-02
 -0.78142E-04  0.19849E-02  0.36266E-02  0.46752E-02  0.51929E-02  0.50197E-02
  0.39722E-02  0.21857E-02 -0.57794E-03 -0.46733E-02 -0.99565E-02 -0.17258E-01
 -0.27090E-01 -0.33265E-01 -0.24564E-01  0.94771E-08  0.24564E-01  0.33265E-01
  0.27090E-01  0.17258E-01  0.99565E-02  0.46733E-02  0.57794E-03 -0.21857E-02
 -0.39722E-02 -0.50197E-02 -0.51928E-02 -0.46751E-02 -0.36266E-02 -0.19849E-02
  0.78153E-04  0.26178E-02  0.56201E-02  0.68107E-02  0.11141E-01  0.52759E-02
 -0.12287E-02 -0.43564E-02 -0.38767E-02 -0.21209E-02 -0.44047E-03  0.11181E-02
  0.23745E-02  0.31116E-02  0.34212E-02  0.31708E-02  0.21857E-02  0.64902E-03
 -0.15632E-02 -0.48092E-02 -0.88486E-02 -0.13769E-01 -0.19789E-01 -0.23194E-01
 -0.16828E-01  0.95878E-08  0.16828E-01  0.23194E-01  0.19789E-01  0.13769E-01
  0.88486E-02  0.48092E-02  0.15633E-02 -0.64901E-03 -0.21857E-02 -0.31708E-02
 -0.34212E-02 -0.31116E-02 -0.23745E-02 -0.11181E-02  0.44048E-03  0.21209E-02
  0.38767E-02  0.43564E-02  0.66578E-02  0.32968E-02 -0.35425E-03 -0.23620E-02
 -0.25783E-02 -0.19549E-02 -0.10366E-02 -0.47071E-04  0.58999E-03  0.70917E-03
  0.56127E-03  0.17645E-03 -0.57794E-03 -0.15632E-02 -0.28414E-02 -0.48003E-02
 -0.73077E-02 -0.99256E-02 -0.12431E-01 -0.13233E-01 -0.91716E-02  0.53367E-08
  0.91716E-02  0.13233E-01  0.12431E-01  0.99256E-02  0.73077E-02  0.48003E-02
  0.28414E-02  0.15633E-02  0.57794E-03 -0.17643E-03 -0.56126E-03 -0.70916E-03
 -0.58998E-03  0.47084E-04  0.10366E-02  0.19549E-02  0.25783E-02  0.23620E-02
  0.36470E-02  0.18195E-02 -0.14279E-03 -0.15208E-02 -0.21368E-02 -0.21747E-02
 -0.19232E-02 -0.17873E-02 -0.21411E-02 -0.29337E-02 -0.37414E-02 -0.43117E-02
 -0.46733E-02 -0.48092E-02 -0.48003E-02 -0.50405E-02 -0.57253E-02 -0.65166E-02
 -0.69353E-02 -0.63758E-02 -0.40315E-02  0.22891E-08  0.40315E-02  0.63758E-02
  0.69353E-02  0.65166E-02  0.57253E-02  0.50405E-02  0.48003E-02  0.48092E-02
  0.46733E-02  0.43117E-02  0.37414E-02  0.29337E-02  0.21411E-02  0.17874E-02
  0.19232E-02  0.21747E-02  0.21368E-02  0.15208E-02  0.19694E-02  0.83577E-03
 -0.42883E-03 -0.15068E-02 -0.22127E-02 -0.26338E-02 -0.31540E-02 -0.41275E-02
 -0.56449E-02 -0.75323E-02 -0.92767E-02 -0.10187E-01 -0.99564E-02 -0.88486E-02
 -0.73077E-02 -0.57253E-02 -0.44345E-02 -0.35147E-02 -0.27280E-02 -0.18566E-02
 -0.91997E-03  0.17474E-08  0.91997E-03  0.18566E-02  0.27280E-02  0.35147E-02
  0.44345E-02  0.57253E-02  0.73077E-02  0.88486E-02  0.99564E-02  0.10187E-01
  0.92767E-02  0.75323E-02  0.56449E-02  0.41275E-02  0.31541E-02  0.26338E-02
  0.22127E-02  0.15068E-02  0.96206E-03  0.13729E-03 -0.83773E-03 -0.17144E-02
 -0.24097E-02 -0.31813E-02 -0.44575E-02 -0.64503E-02 -0.92880E-02 -0.13038E-01
 -0.16806E-01 -0.18603E-01 -0.17258E-01 -0.13769E-01 -0.99256E-02 -0.65166E-02
 -0.35146E-02 -0.98588E-03  0.82772E-03  0.16662E-02  0.13075E-02  0.24552E-08
 -0.13075E-02 -0.16662E-02 -0.82772E-03  0.98588E-03  0.35146E-02  0.65166E-02
  0.99256E-02  0.13769E-01  0.17258E-01  0.18603E-01  0.16806E-01  0.13038E-01
  0.92880E-02  0.64503E-02  0.44575E-02  0.31813E-02  0.24097E-02  0.17144E-02
  0.31797E-03 -0.31348E-03 -0.10791E-02 -0.17787E-02 -0.24711E-02 -0.34966E-02
 -0.52088E-02 -0.79704E-02 -0.12581E-01 -0.19525E-01 -0.26817E-01 -0.30165E-01
 -0.27090E-01 -0.19789E-01 -0.12431E-01 -0.69353E-02 -0.27280E-02  0.82772E-03
  0.33610E-02  0.41321E-02  0.28128E-02  0.34141E-08 -0.28127E-02 -0.41321E-02
 -0.33610E-02 -0.82772E-03  0.27280E-02  0.69353E-02  0.12431E-01  0.19789E-01
  0.27090E-01  0.30165E-01  0.26817E-01  0.19525E-01  0.12581E-01  0.79704E-02
  0.52088E-02  0.34966E-02  0.24712E-02  0.17787E-02 -0.33646E-04 -0.49382E-03
 -0.10415E-02 -0.15515E-02 -0.21569E-02 -0.31381E-02 -0.47855E-02 -0.78188E-02
 -0.13742E-01 -0.23193E-01 -0.33124E-01 -0.37578E-01 -0.33265E-01 -0.23194E-01
 -0.13233E-01 -0.63757E-02 -0.18566E-02  0.16662E-02  0.41321E-02  0.47279E-02
  0.31193E-02  0.38208E-08 -0.31193E-02 -0.47279E-02 -0.41321E-02 -0.16662E-02
  0.18566E-02  0.63757E-02  0.13233E-01  0.23194E-01  0.33265E-01  0.37578E-01
  0.33124E-01  0.23193E-01  0.13742E-01  0.78188E-02  0.47855E-02  0.31381E-02
  0.21569E-02  0.15515E-02 -0.11674E-03 -0.37190E-03 -0.66441E-03 -0.93788E-03
 -0.12946E-02 -0.18877E-02 -0.29177E-02 -0.50571E-02 -0.95772E-02 -0.16889E-01
 -0.24509E-01 -0.27884E-01 -0.24564E-01 -0.16828E-01 -0.91716E-02 -0.40315E-02
 -0.91996E-03  0.13075E-02  0.28128E-02  0.31193E-02  0.20287E-02  0.36544E-08
 -0.20287E-02 -0.31193E-02 -0.28128E-02 -0.13075E-02  0.91996E-03  0.40315E-02
  0.91716E-02  0.16828E-01  0.24564E-01  0.27884E-01  0.24509E-01  0.16889E-01
  0.95772E-02  0.50571E-02  0.29177E-02  0.18877E-02  0.12946E-02  0.93789E-03
 -0.35215E-08 -0.23801E-08  0.89886E-09  0.28045E-08  0.21860E-08  0.11922E-08
  0.66718E-09 -0.14619E-08 -0.56179E-08 -0.79851E-08 -0.49433E-08  0.20872E-08
  0.80958E-08  0.93564E-08  0.61227E-08  0.19073E-08  0.24049E-09  0.13227E-08
  0.27041E-08  0.31635E-08  0.35166E-08  0.39186E-08  0.35386E-08  0.25283E-08
  0.16713E-08  0.10069E-08  0.86514E-10 -0.21239E-08 -0.67579E-08 -0.11463E-07
 -0.10211E-07 -0.13172E-08  0.79965E-08  0.10115E-07  0.62499E-08  0.27621E-08
  0.25098E-08  0.39782E-08  0.56779E-08  0.78125E-08  0.11673E-03  0.37189E-03
  0.66441E-03  0.93789E-03  0.12946E-02  0.18877E-02  0.29177E-02  0.50571E-02
  0.95772E-02  0.16889E-01  0.24509E-01  0.27884E-01  0.24564E-01  0.16828E-01
  0.91716E-02  0.40315E-02  0.91996E-03 -0.13075E-02 -0.28128E-02 -0.31193E-02
 -0.20287E-02  0.44587E-08  0.20287E-02  0.31193E-02  0.28128E-02  0.13075E-02
 -0.91996E-03 -0.40315E-02 -0.91716E-02 -0.16828E-01 -0.24564E-01 -0.27884E-01
 -0.24509E-01 -0.16889E-01 -0.95772E-02 -0.50571E-02 -0.29177E-02 -0.18877E-02
 -0.12946E-02 -0.93788E-03  0.33643E-04  0.49381E-03  0.10415E-02  0.15515E-02
  0.21569E-02  0.31381E-02  0.47855E-02  0.78188E-02  0.13742E-01  0.23193E-01
  0.33124E-01  0.37578E-01  0.33265E-01  0.23194E-01  0.13233E-01  0.63757E-02
  0.18566E-02 -0.16662E-02 -0.41321E-02 -0.47279E-02 -0.31193E-02  0.37123E-08
  0.31193E-02  0.47279E-02  0.41321E-02  0.16662E-02 -0.18566E-02 -0.63757E-02
 -0.13233E-01 -0.23194E-01 -0.33265E-01 -0.37578E-01 -0.33124E-01 -0.23193E-01
 -0.13742E-01 -0.78188E-02 -0.47855E-02 -0.31381E-02 -0.21569E-02 -0.15515E-02
 -0.31797E-03  0.31348E-03  0.10791E-02  0.17787E-02  0.24711E-02  0.34966E-02
  0.52088E-02  0.79704E-02  0.12581E-01  0.19525E-01  0.26817E-01  0.30165E-01
  0.27090E-01  0.19789E-01  0.12431E-01  0.69353E-02  0.27280E-02 -0.82772E-03
 -0.33610E-02 -0.41321E-02 -0.28128E-02  0.17653E-08  0.28128E-02  0.41321E-02
  0.33610E-02  0.82773E-03 -0.27280E-02 -0.69353E-02 -0.12431E-01 -0.19789E-01
 -0.27090E-01 -0.30165E-01 -0.26817E-01 -0.19525E-01 -0.12581E-01 -0.79704E-02
 -0.52088E-02 -0.34966E-02 -0.24711E-02 -0.17787E-02 -0.96206E-03 -0.13729E-03
  0.83772E-03  0.17144E-02  0.24097E-02  0.31813E-02  0.44575E-02  0.64503E-02
  0.92880E-02  0.13038E-01  0.16806E-01  0.18603E-01  0.17258E-01  0.13769E-01
  0.99256E-02  0.65166E-02  0.35146E-02  0.98588E-03 -0.82772E-03 -0.16662E-02
 -0.13075E-02  0.49800E-09  0.13075E-02  0.16662E-02  0.82772E-03 -0.98588E-03
 -0.35146E-02 -0.65166E-02 -0.99256E-02 -0.13769E-01 -0.17258E-01 -0.18603E-01
 -0.16806E-01 -0.13038E-01 -0.92880E-02 -0.64503E-02 -0.44575E-02 -0.31813E-02
 -0.24097E-02 -0.17144E-02 -0.19694E-02 -0.83578E-03  0.42882E-03  0.15068E-02
  0.22127E-02  0.26338E-02  0.31541E-02  0.41275E-02  0.56449E-02  0.75323E-02
  0.92767E-02  0.10187E-01  0.99564E-02  0.88486E-02  0.73077E-02  0.57253E-02
  0.44345E-02  0.35147E-02  0.27280E-02  0.18566E-02  0.91997E-03 -0.18696E-09
 -0.91997E-03 -0.18566E-02 -0.27280E-02 -0.35146E-02 -0.44345E-02 -0.57253E-02
 -0.73077E-02 -0.88486E-02 -0.99564E-02 -0.10187E-01 -0.92767E-02 -0.75323E-02
 -0.56449E-02 -0.41275E-02 -0.31540E-02 -0.26338E-02 -0.22127E-02 -0.15068E-02
 -0.36470E-02 -0.18195E-02  0.14278E-03  0.15208E-02  0.21368E-02  0.21747E-02
  0.19232E-02  0.17873E-02  0.21411E-02  0.29337E-02  0.37414E-02  0.43117E-02
  0.46733E-02  0.48092E-02  0.48003E-02  0.50405E-02  0.57253E-02  0.65166E-02
  0.69353E-02  0.63758E-02  0.40315E-02 -0.27490E-08 -0.40315E-02 -0.63758E-02
 -0.69353E-02 -0.65166E-02 -0.57253E-02 -0.50405E-02 -0.48003E-02 -0.48092E-02
 -0.46733E-02 -0.43117E-02 -0.37414E-02 -0.29337E-02 -0.21411E-02 -0.17873E-02
 -0.19232E-02 -0.21747E-02 -0.21368E-02 -0.15208E-02 -0.66579E-02 -0.32968E-02
  0.35424E-03  0.23620E-02  0.25783E-02  0.19549E-02  0.10366E-02  0.47074E-04
 -0.58999E-03 -0.70917E-03 -0.56126E-03 -0.17644E-03  0.57794E-03  0.15633E-02
  0.28414E-02  0.48003E-02  0.73077E-02  0.99256E-02  0.12431E-01  0.13233E-01
  0.91716E-02 -0.74950E-08 -0.91716E-02 -0.13233E-01 -0.12431E-01 -0.99256E-02
 -0.73077E-02 -0.48003E-02 -0.28414E-02 -0.15632E-02 -0.57793E-03  0.17645E-03
  0.56127E-03  0.70917E-03  0.58999E-03 -0.47071E-04 -0.10366E-02 -0.19549E-02
 -0.25783E-02 -0.23620E-02 -0.11142E-01 -0.52759E-02  0.12287E-02  0.43564E-02
  0.38767E-02  0.21209E-02  0.44047E-03 -0.11181E-02 -0.23745E-02 -0.31116E-02
 -0.34212E-02 -0.31708E-02 -0.21857E-02 -0.64901E-03  0.15633E-02  0.48092E-02
  0.88486E-02  0.13769E-01  0.19789E-01  0.23194E-01  0.16828E-01 -0.10730E-07
 -0.16828E-01 -0.23194E-01 -0.19789E-01 -0.13769E-01 -0.88486E-02 -0.48092E-02
 -0.15632E-02  0.64903E-03  0.21857E-02  0.31708E-02  0.34212E-02  0.31116E-02
  0.23745E-02  0.11181E-02 -0.44047E-03 -0.21209E-02 -0.38767E-02 -0.43564E-02
 -0.15445E-01 -0.69547E-02  0.25007E-02  0.68107E-02  0.56201E-02  0.26177E-02
  0.78144E-04 -0.19849E-02 -0.36266E-02 -0.46751E-02 -0.51928E-02 -0.50197E-02
 -0.39722E-02 -0.21857E-02  0.57795E-03  0.46733E-02  0.99565E-02  0.17258E-01
  0.27090E-01  0.33265E-01  0.24564E-01 -0.88995E-08 -0.24564E-01 -0.33265E-01
 -0.27090E-01 -0.17258E-01 -0.99564E-02 -0.46733E-02 -0.57793E-03  0.21857E-02
  0.39722E-02  0.50197E-02  0.51929E-02  0.46752E-02  0.36266E-02  0.19849E-02
 -0.78143E-04 -0.26177E-02 -0.56201E-02 -0.68107E-02 -0.16910E-01 -0.72248E-02
  0.34240E-02  0.81072E-02  0.65115E-02  0.29025E-02 -0.98993E-04 -0.24882E-02
 -0.43714E-02 -0.55712E-02 -0.61686E-02 -0.60436E-02 -0.50197E-02 -0.31708E-02
 -0.17643E-03  0.43117E-02  0.10187E-01  0.18603E-01  0.30165E-01  0.37578E-01
  0.27884E-01 -0.28303E-08 -0.27884E-01 -0.37578E-01 -0.30165E-01 -0.18603E-01
 -0.10187E-01 -0.43117E-02  0.17644E-03  0.31708E-02  0.50197E-02  0.60436E-02
  0.61686E-02  0.55712E-02  0.43714E-02  0.24882E-02  0.98994E-04 -0.29025E-02
 -0.65115E-02 -0.81072E-02 -0.14590E-01 -0.59971E-02  0.32185E-02  0.71306E-02
  0.56351E-02  0.24613E-02 -0.24194E-03 -0.25273E-02 -0.43979E-02 -0.56198E-02
 -0.62528E-02 -0.61686E-02 -0.51928E-02 -0.34212E-02 -0.56125E-03  0.37414E-02
  0.92767E-02  0.16806E-01  0.26817E-01  0.33124E-01  0.24509E-01  0.31077E-08
 -0.24509E-01 -0.33124E-01 -0.26817E-01 -0.16806E-01 -0.92767E-02 -0.37414E-02
  0.56126E-03  0.34212E-02  0.51929E-02  0.61686E-02  0.62528E-02  0.56198E-02
  0.43979E-02  0.25273E-02  0.24194E-03 -0.24613E-02 -0.56351E-02 -0.71306E-02
 -0.10272E-01 -0.43052E-02  0.19053E-02  0.45305E-02  0.35997E-02  0.15282E-02
 -0.41603E-03 -0.22765E-02 -0.38907E-02 -0.49986E-02 -0.56198E-02 -0.55712E-02
 -0.46751E-02 -0.31116E-02 -0.70915E-03  0.29337E-02  0.75324E-02  0.13038E-01
  0.19525E-01  0.23193E-01  0.16889E-01  0.51937E-08 -0.16889E-01 -0.23193E-01
 -0.19525E-01 -0.13038E-01 -0.75324E-02 -0.29337E-02  0.70916E-03  0.31116E-02
  0.46751E-02  0.55712E-02  0.56198E-02  0.49986E-02  0.38907E-02  0.22765E-02
  0.41603E-03 -0.15282E-02 -0.35997E-02 -0.45305E-02 -0.64157E-02 -0.30463E-02
  0.37933E-03  0.19875E-02  0.17343E-02  0.69888E-03 -0.53362E-03 -0.18694E-02
 -0.30520E-02 -0.38907E-02 -0.43979E-02 -0.43714E-02 -0.36266E-02 -0.23745E-02
 -0.58997E-03  0.21411E-02  0.56449E-02  0.92881E-02  0.12581E-01  0.13742E-01
  0.95772E-02  0.34714E-08 -0.95772E-02 -0.13742E-01 -0.12581E-01 -0.92880E-02
 -0.56449E-02 -0.21411E-02  0.58998E-03  0.23745E-02  0.36266E-02  0.43714E-02
  0.43979E-02  0.38907E-02  0.30520E-02  0.18694E-02  0.53362E-03 -0.69888E-03
 -0.17343E-02 -0.19875E-02 -0.40137E-02 -0.23341E-02 -0.62171E-03  0.40329E-03
  0.55625E-03  0.12623E-03 -0.55630E-03 -0.12777E-02 -0.18694E-02 -0.22765E-02
 -0.25273E-02 -0.24882E-02 -0.19849E-02 -0.11181E-02  0.47094E-04  0.17874E-02
  0.41275E-02  0.64503E-02  0.79704E-02  0.78188E-02  0.50571E-02  0.11813E-08
 -0.50571E-02 -0.78188E-02 -0.79704E-02 -0.64503E-02 -0.41275E-02 -0.17874E-02
 -0.47084E-04  0.11181E-02  0.19849E-02  0.24882E-02  0.25273E-02  0.22765E-02
  0.18694E-02  0.12777E-02  0.55630E-03 -0.12623E-03 -0.55625E-03 -0.40329E-03
 -0.26943E-02 -0.19583E-02 -0.11667E-02 -0.53639E-03 -0.27348E-03 -0.34637E-03
 -0.49377E-03 -0.55630E-03 -0.53361E-03 -0.41603E-03 -0.24194E-03 -0.98982E-04
  0.78159E-04  0.44049E-03  0.10366E-02  0.19232E-02  0.31541E-02  0.44575E-02
  0.52088E-02  0.47855E-02  0.29177E-02  0.94947E-09 -0.29177E-02 -0.47855E-02
 -0.52088E-02 -0.44575E-02 -0.31541E-02 -0.19232E-02 -0.10366E-02 -0.44048E-03
 -0.78151E-04  0.98988E-04  0.24194E-03  0.41603E-03  0.53362E-03  0.55630E-03
  0.49377E-03  0.34637E-03  0.27348E-03  0.53639E-03 -0.18466E-02 -0.17136E-02
 -0.15418E-02 -0.12870E-02 -0.10117E-02 -0.72844E-03 -0.34637E-03  0.12623E-03
  0.69888E-03  0.15282E-02  0.24613E-02  0.29025E-02  0.26177E-02  0.21209E-02
  0.19549E-02  0.21747E-02  0.26338E-02  0.31813E-02  0.34966E-02  0.31381E-02
  0.18877E-02  0.19377E-08 -0.18877E-02 -0.31381E-02 -0.34966E-02 -0.31813E-02
 -0.26338E-02 -0.21747E-02 -0.19549E-02 -0.21209E-02 -0.26177E-02 -0.29025E-02
 -0.24613E-02 -0.15282E-02 -0.69888E-03 -0.12623E-03  0.34636E-03  0.72844E-03
  0.10116E-02  0.12870E-02 -0.11708E-02 -0.13696E-02 -0.16392E-02 -0.17612E-02
 -0.15550E-02 -0.10116E-02 -0.27348E-03  0.55625E-03  0.17343E-02  0.35997E-02
  0.56350E-02  0.65115E-02  0.56200E-02  0.38767E-02  0.25783E-02  0.21368E-02
  0.22127E-02  0.24097E-02  0.24712E-02  0.21569E-02  0.12946E-02  0.20242E-08
 -0.12946E-02 -0.21569E-02 -0.24711E-02 -0.24097E-02 -0.22127E-02 -0.21368E-02
 -0.25783E-02 -0.38767E-02 -0.56200E-02 -0.65115E-02 -0.56350E-02 -0.35997E-02
 -0.17343E-02 -0.55625E-03  0.27347E-03  0.10116E-02  0.15550E-02  0.17612E-02
 -0.72187E-03 -0.90153E-03 -0.13098E-02 -0.17259E-02 -0.17612E-02 -0.12870E-02
 -0.53639E-03  0.40329E-03  0.19876E-02  0.45305E-02  0.71306E-02  0.81072E-02
  0.68107E-02  0.43564E-02  0.23620E-02  0.15208E-02  0.15068E-02  0.17144E-02
  0.17787E-02  0.15515E-02  0.93790E-03  0.18382E-08 -0.93789E-03 -0.15515E-02
 -0.17787E-02 -0.17144E-02 -0.15068E-02 -0.15208E-02 -0.23620E-02 -0.43564E-02
 -0.68107E-02 -0.81072E-02 -0.71306E-02 -0.45305E-02 -0.19876E-02 -0.40330E-03
  0.53638E-03  0.12870E-02  0.17612E-02  0.17259E-02  0.20335E-02  0.14598E-02
  0.10779E-02  0.11685E-02  0.15875E-02  0.21410E-02  0.29259E-02  0.43732E-02
  0.72393E-02  0.11952E-01  0.17198E-01  0.19916E-01  0.18011E-01  0.12748E-01
  0.73826E-02  0.38845E-02  0.20220E-02  0.93403E-03  0.24917E-03 -0.90258E-04
 -0.13749E-03  0.29789E-08  0.13750E-03  0.90264E-04 -0.24917E-03 -0.93402E-03
 -0.20220E-02 -0.38845E-02 -0.73826E-02 -0.12748E-01 -0.18011E-01 -0.19916E-01
 -0.17198E-01 -0.11952E-01 -0.72393E-02 -0.43732E-02 -0.29259E-02 -0.21410E-02
 -0.15875E-02 -0.11685E-02  0.14599E-02  0.12043E-02  0.12538E-02  0.16206E-02
  0.19321E-02  0.20368E-02  0.21958E-02  0.26827E-02  0.36913E-02  0.54576E-02
  0.77247E-02  0.92445E-02  0.87609E-02  0.65190E-02  0.39885E-02  0.21907E-02
  0.10797E-02  0.32010E-03 -0.17665E-03 -0.38600E-03 -0.30210E-03  0.25203E-08
  0.30210E-03  0.38600E-03  0.17665E-03 -0.32010E-03 -0.10797E-02 -0.21907E-02
 -0.39885E-02 -0.65190E-02 -0.87609E-02 -0.92445E-02 -0.77247E-02 -0.54576E-02
 -0.36913E-02 -0.26827E-02 -0.21958E-02 -0.20368E-02 -0.19321E-02 -0.16206E-02
  0.10779E-02  0.12538E-02  0.17164E-02  0.21770E-02  0.21985E-02  0.18037E-02
  0.13563E-02  0.84657E-03 -0.16640E-03 -0.16935E-02 -0.28945E-02 -0.29328E-02
 -0.19287E-02 -0.70840E-03  0.67577E-04  0.23860E-03 -0.20605E-04 -0.40251E-03
 -0.66286E-03 -0.69842E-03 -0.46192E-03  0.17492E-08  0.46192E-03  0.69843E-03
  0.66286E-03  0.40251E-03  0.20605E-04 -0.23861E-03 -0.67582E-04  0.70840E-03
  0.19287E-02  0.29328E-02  0.28945E-02  0.16935E-02  0.16640E-03 -0.84657E-03
 -0.13563E-02 -0.18037E-02 -0.21985E-02 -0.21770E-02  0.11685E-02  0.16206E-02
  0.21770E-02  0.24379E-02  0.21289E-02  0.14345E-02  0.67865E-03 -0.28113E-03
 -0.20814E-02 -0.49192E-02 -0.76531E-02 -0.85096E-02 -0.69450E-02 -0.42406E-02
 -0.20814E-02 -0.11169E-02 -0.98956E-03 -0.11331E-02 -0.12192E-02 -0.10986E-02
 -0.67661E-03  0.12832E-08  0.67662E-03  0.10986E-02  0.12192E-02  0.11331E-02
  0.98956E-03  0.11169E-02  0.20814E-02  0.42406E-02  0.69450E-02  0.85096E-02
  0.76531E-02  0.49192E-02  0.20814E-02  0.28113E-03 -0.67865E-03 -0.14345E-02
 -0.21289E-02 -0.24379E-02  0.15875E-02  0.19321E-02  0.21985E-02  0.21289E-02
  0.16990E-02  0.10836E-02  0.39179E-03 -0.47588E-03 -0.18642E-02 -0.39686E-02
 -0.60647E-02 -0.67576E-02 -0.55533E-02 -0.35383E-02 -0.20775E-02 -0.15381E-02
 -0.15553E-02 -0.17714E-02 -0.19388E-02 -0.17748E-02 -0.10890E-02  0.99952E-09
  0.10890E-02  0.17748E-02  0.19388E-02  0.17714E-02  0.15553E-02  0.15381E-02
  0.20775E-02  0.35383E-02  0.55533E-02  0.67576E-02  0.60647E-02  0.39686E-02
  0.18642E-02  0.47588E-03 -0.39179E-03 -0.10836E-02 -0.16990E-02 -0.21289E-02
  0.21410E-02  0.20368E-02  0.18037E-02  0.14345E-02  0.10836E-02  0.79757E-03
  0.42856E-03 -0.82573E-04 -0.72775E-03 -0.15616E-02 -0.23443E-02 -0.25010E-02
 -0.19216E-02 -0.12399E-02 -0.10129E-02 -0.12398E-02 -0.17657E-02 -0.24765E-02
 -0.30256E-02 -0.28810E-02 -0.17791E-02  0.41419E-09  0.17791E-02  0.28810E-02
  0.30256E-02  0.24765E-02  0.17657E-02  0.12398E-02  0.10129E-02  0.12399E-02
  0.19216E-02  0.25010E-02  0.23443E-02  0.15616E-02  0.72775E-03  0.82574E-04
 -0.42856E-03 -0.79756E-03 -0.10836E-02 -0.14345E-02  0.29259E-02  0.21959E-02
  0.13563E-02  0.67866E-03  0.39180E-03  0.42856E-03  0.53135E-03  0.59462E-03
  0.65627E-03  0.72064E-03  0.82845E-03  0.10230E-02  0.11361E-02  0.92381E-03
  0.32596E-03 -0.66776E-03 -0.20848E-02 -0.36597E-02 -0.47380E-02 -0.45989E-02
 -0.28831E-02 -0.25044E-09  0.28831E-02  0.45989E-02  0.47380E-02  0.36597E-02
  0.20848E-02  0.66776E-03 -0.32596E-03 -0.92381E-03 -0.11361E-02 -0.10230E-02
 -0.82845E-03 -0.72064E-03 -0.65626E-03 -0.59462E-03 -0.53135E-03 -0.42856E-03
 -0.39180E-03 -0.67866E-03  0.43732E-02  0.26827E-02  0.84659E-03 -0.28111E-03
 -0.47588E-03 -0.82570E-04  0.59462E-03  0.14204E-02  0.22200E-02  0.28854E-02
  0.34376E-02  0.37407E-02  0.35495E-02  0.28512E-02  0.16427E-02 -0.31259E-03
 -0.29416E-02 -0.55992E-02 -0.75307E-02 -0.77747E-02 -0.51735E-02 -0.79454E-09
  0.51735E-02  0.77747E-02  0.75307E-02  0.55992E-02  0.29416E-02  0.31259E-03
 -0.16427E-02 -0.28512E-02 -0.35495E-02 -0.37407E-02 -0.34376E-02 -0.28854E-02
 -0.22200E-02 -0.14204E-02 -0.59462E-03  0.82570E-04  0.47587E-03  0.28111E-03
  0.72393E-02  0.36913E-02 -0.16638E-03 -0.20814E-02 -0.18642E-02 -0.72774E-03
  0.65627E-03  0.22200E-02  0.36907E-02  0.48273E-02  0.56496E-02  0.59754E-02
  0.55583E-02  0.44641E-02  0.25553E-02 -0.51852E-03 -0.44186E-02 -0.85212E-02
 -0.12470E-01 -0.14275E-01 -0.10187E-01 -0.15463E-08  0.10187E-01  0.14275E-01
  0.12470E-01  0.85212E-02  0.44186E-02  0.51852E-03 -0.25553E-02 -0.44641E-02
 -0.55583E-02 -0.59754E-02 -0.56496E-02 -0.48273E-02 -0.36907E-02 -0.22200E-02
 -0.65627E-03  0.72774E-03  0.18642E-02  0.20814E-02  0.11952E-01  0.54576E-02
 -0.16935E-02 -0.49192E-02 -0.39686E-02 -0.15616E-02  0.72064E-03  0.28854E-02
  0.48273E-02  0.62972E-02  0.73063E-02  0.76459E-02  0.70539E-02  0.55658E-02
  0.29170E-02 -0.11882E-02 -0.63134E-02 -0.12570E-01 -0.20238E-01 -0.24968E-01
 -0.18482E-01 -0.17746E-08  0.18482E-01  0.24968E-01  0.20238E-01  0.12570E-01
  0.63134E-02  0.11882E-02 -0.29170E-02 -0.55658E-02 -0.70539E-02 -0.76459E-02
 -0.73063E-02 -0.62972E-02 -0.48273E-02 -0.28854E-02 -0.72064E-03  0.15616E-02
  0.39686E-02  0.49192E-02  0.17198E-01  0.77247E-02 -0.28945E-02 -0.76531E-02
 -0.60647E-02 -0.23443E-02  0.82845E-03  0.34376E-02  0.56496E-02  0.73063E-02
  0.84162E-02  0.87462E-02  0.80061E-02  0.61795E-02  0.29472E-02 -0.19044E-02
 -0.81058E-02 -0.16772E-01 -0.28604E-01 -0.36410E-01 -0.27253E-01 -0.10035E-09
  0.27253E-01  0.36410E-01  0.28604E-01  0.16772E-01  0.81058E-02  0.19044E-02
 -0.29472E-02 -0.61795E-02 -0.80061E-02 -0.87462E-02 -0.84162E-02 -0.73063E-02
 -0.56496E-02 -0.34376E-02 -0.82845E-03  0.23443E-02  0.60647E-02  0.76531E-02
  0.19917E-01  0.92445E-02 -0.29328E-02 -0.85096E-02 -0.67576E-02 -0.25010E-02
  0.10230E-02  0.37407E-02  0.59754E-02  0.76459E-02  0.87462E-02  0.90052E-02
  0.81183E-02  0.60871E-02  0.26279E-02 -0.24539E-02 -0.90809E-02 -0.18873E-01
 -0.32612E-01 -0.41727E-01 -0.31258E-01  0.22464E-08  0.31258E-01  0.41727E-01
  0.32612E-01  0.18873E-01  0.90809E-02  0.24539E-02 -0.26279E-02 -0.60871E-02
 -0.81183E-02 -0.90052E-02 -0.87462E-02 -0.76459E-02 -0.59754E-02 -0.37407E-02
 -0.10230E-02  0.25010E-02  0.67576E-02  0.85096E-02  0.18011E-01  0.87609E-02
 -0.19287E-02 -0.69451E-02 -0.55533E-02 -0.19216E-02  0.11361E-02  0.35496E-02
  0.55583E-02  0.70539E-02  0.80061E-02  0.81183E-02  0.71024E-02  0.50548E-02
  0.17974E-02 -0.28884E-02 -0.89071E-02 -0.17508E-01 -0.29331E-01 -0.37031E-01
 -0.27612E-01  0.21618E-08  0.27612E-01  0.37031E-01  0.29331E-01  0.17508E-01
  0.89071E-02  0.28884E-02 -0.17974E-02 -0.50548E-02 -0.71024E-02 -0.81183E-02
 -0.80061E-02 -0.70539E-02 -0.55583E-02 -0.35496E-02 -0.11361E-02  0.19216E-02
  0.55533E-02  0.69451E-02  0.12748E-01  0.65190E-02 -0.70843E-03 -0.42406E-02
 -0.35383E-02 -0.12399E-02  0.92382E-03  0.28512E-02  0.44641E-02  0.55658E-02
  0.61795E-02  0.60871E-02  0.50548E-02  0.32508E-02  0.58900E-03 -0.32043E-02
 -0.78966E-02 -0.13808E-01 -0.21229E-01 -0.25690E-01 -0.18863E-01 -0.25285E-09
  0.18863E-01  0.25690E-01  0.21229E-01  0.13808E-01  0.78966E-02  0.32043E-02
 -0.58900E-03 -0.32508E-02 -0.50548E-02 -0.60871E-02 -0.61795E-02 -0.55658E-02
 -0.44641E-02 -0.28512E-02 -0.92382E-03  0.12399E-02  0.35383E-02  0.42406E-02
  0.73826E-02  0.39885E-02  0.67572E-04 -0.20814E-02 -0.20775E-02 -0.10129E-02
  0.32597E-03  0.16427E-02  0.25553E-02  0.29170E-02  0.29473E-02  0.26279E-02
  0.17974E-02  0.58900E-03 -0.10593E-02 -0.35078E-02 -0.65777E-02 -0.98567E-02
 -0.13125E-01 -0.14465E-01 -0.10178E-01 -0.15555E-08  0.10178E-01  0.14465E-01
  0.13125E-01  0.98567E-02  0.65777E-02  0.35078E-02  0.10593E-02 -0.58900E-03
 -0.17974E-02 -0.26279E-02 -0.29473E-02 -0.29170E-02 -0.25553E-02 -0.16427E-02
 -0.32597E-03  0.10129E-02  0.20775E-02  0.20814E-02  0.38845E-02  0.21907E-02
  0.23861E-03 -0.11169E-02 -0.15381E-02 -0.12398E-02 -0.66775E-03 -0.31258E-03
 -0.51850E-03 -0.11881E-02 -0.19044E-02 -0.24539E-02 -0.28884E-02 -0.32043E-02