       #
       # Generated by the Wannier90 code http://www.wannier.org
       # On 23Sep2015 at 16:17:37 
       #
CRYSTAL
PRIMVEC
   3.8425000   0.0000000   0.0000000
   0.0000000   3.8425000   0.0000000
   0.0000000   0.0000000   3.8425000
CONVVEC
   3.8425000   0.0000000   0.0000000
   0.0000000   3.8425000   0.0000000
   0.0000000   0.0000000   3.8425000
PRIMCOORD
     5  1
V       0.0000000   0.0000000   0.0000000
Sr      1.9212500   1.9212500   1.9212500
O       1.9212500   0.0000000   0.0000000
O       0.0000000   1.9212500   0.0000000
O       0.0000000   0.0000000   1.9212500


BEGIN_BLOCK_DATAGRID_3D
3D_field
BEGIN_DATAGRID_3D_UNKNOWN
    40    40    40
   -4.034625   -4.034625   -4.034625
   7.4928749   0.0000000   0.0000000
   0.0000000   7.4928749   0.0000000
   0.0000000   0.0000000   7.4928749
  0.13235E-02  0.12505E-02  0.94585E-03  0.64442E-03  0.82601E-03  0.18536E-02
  0.36280E-02  0.62058E-02  0.97477E-02  0.12667E-01  0.11668E-01  0.57906E-02
 -0.12611E-02 -0.50211E-02 -0.49017E-02 -0.32153E-02 -0.15801E-02 -0.22113E-03
  0.73173E-03  0.10673E-02  0.98841E-03  0.90331E-03  0.98840E-03  0.10672E-02
  0.73173E-03 -0.22112E-03 -0.15801E-02 -0.32153E-02 -0.49017E-02 -0.50211E-02
 -0.12611E-02  0.57906E-02  0.11668E-01  0.12667E-01  0.97477E-02  0.62058E-02
  0.36280E-02  0.18536E-02  0.82602E-03  0.64443E-03  0.12506E-02  0.13343E-02
  0.10878E-02  0.81436E-03  0.10255E-02  0.19773E-02  0.34376E-02  0.53294E-02
  0.74674E-02  0.79179E-02  0.39042E-02 -0.39108E-02 -0.10449E-01 -0.11609E-01
 -0.85000E-02 -0.47357E-02 -0.20051E-02 -0.17614E-04  0.14234E-02  0.21593E-02
  0.23595E-02  0.23780E-02  0.23595E-02  0.21593E-02  0.14234E-02 -0.17616E-04
 -0.20051E-02 -0.47357E-02 -0.85000E-02 -0.11609E-01 -0.10449E-01 -0.39108E-02
  0.39042E-02  0.79179E-02  0.74674E-02  0.53294E-02  0.34376E-02  0.19773E-02
  0.10255E-02  0.81437E-03  0.94586E-03  0.10878E-02  0.10133E-02  0.97425E-03
  0.12692E-02  0.19360E-02  0.26831E-02  0.33123E-02  0.33628E-02  0.11523E-02
 -0.47819E-02 -0.12373E-01 -0.16622E-01 -0.14948E-01 -0.98111E-02 -0.50045E-02
 -0.17664E-02  0.49043E-03  0.20408E-02  0.28051E-02  0.30268E-02  0.30590E-02
  0.30268E-02  0.28050E-02  0.20408E-02  0.49042E-03 -0.17664E-02 -0.50045E-02
 -0.98111E-02 -0.14948E-01 -0.16622E-01 -0.12373E-01 -0.47819E-02  0.11523E-02
  0.33628E-02  0.33123E-02  0.26831E-02  0.19360E-02  0.12692E-02  0.97426E-03
  0.64442E-03  0.81436E-03  0.97425E-03  0.11665E-02  0.13938E-02  0.15745E-02
  0.15323E-02  0.10966E-02 -0.19259E-03 -0.33813E-02 -0.87966E-02 -0.14183E-01
 -0.15966E-01 -0.13101E-01 -0.80710E-02 -0.36947E-02 -0.68584E-03  0.13965E-02
  0.27141E-02  0.33098E-02  0.34878E-02  0.35235E-02  0.34878E-02  0.33098E-02
  0.27141E-02  0.13965E-02 -0.68585E-03 -0.36947E-02 -0.80710E-02 -0.13101E-01
 -0.15966E-01 -0.14183E-01 -0.87966E-02 -0.33813E-02 -0.19260E-03  0.10966E-02
  0.15323E-02  0.15745E-02  0.13938E-02  0.11665E-02  0.82601E-03  0.10255E-02
  0.12692E-02  0.13938E-02  0.12835E-02  0.93483E-03  0.35859E-03 -0.51927E-03
 -0.19640E-02 -0.44090E-02 -0.77377E-02 -0.10502E-01 -0.10822E-01 -0.83959E-02
 -0.47681E-02 -0.15076E-02  0.97390E-03  0.28571E-02  0.42247E-02  0.51215E-02
  0.56497E-02  0.58338E-02  0.56497E-02  0.51215E-02  0.42247E-02  0.28571E-02
  0.97390E-03 -0.15076E-02 -0.47681E-02 -0.83959E-02 -0.10822E-01 -0.10502E-01
 -0.77377E-02 -0.44090E-02 -0.19640E-02 -0.51928E-03  0.35858E-03  0.93482E-03
  0.12835E-02  0.13938E-02  0.18536E-02  0.19773E-02  0.19360E-02  0.15745E-02
  0.93482E-03  0.19312E-03 -0.55234E-03 -0.13576E-02 -0.23241E-02 -0.35460E-02
 -0.49460E-02 -0.59560E-02 -0.57657E-02 -0.41750E-02 -0.18164E-02  0.61528E-03
  0.29426E-02  0.52676E-02  0.75633E-02  0.95935E-02  0.11019E-01  0.11535E-01
  0.11019E-01  0.95935E-02  0.75633E-02  0.52676E-02  0.29426E-02  0.61529E-03
 -0.18164E-02 -0.41750E-02 -0.57657E-02 -0.59560E-02 -0.49460E-02 -0.35460E-02
 -0.23241E-02 -0.13576E-02 -0.55234E-03  0.19312E-03  0.93482E-03  0.15745E-02
  0.36280E-02  0.34376E-02  0.26831E-02  0.15323E-02  0.35859E-03 -0.55234E-03
 -0.11619E-02 -0.16059E-02 -0.19864E-02 -0.23553E-02 -0.27560E-02 -0.30111E-02
 -0.26923E-02 -0.15766E-02  0.15742E-03  0.23485E-02  0.50947E-02  0.84803E-02
  0.12344E-01  0.16226E-01  0.19273E-01  0.20453E-01  0.19273E-01  0.16226E-01
  0.12344E-01  0.84803E-02  0.50947E-02  0.23485E-02  0.15744E-03 -0.15766E-02
 -0.26923E-02 -0.30111E-02 -0.27560E-02 -0.23553E-02 -0.19864E-02 -0.16059E-02
 -0.11619E-02 -0.55234E-03  0.35859E-03  0.15323E-02  0.62058E-02  0.53294E-02
  0.33123E-02  0.10966E-02 -0.51927E-03 -0.13576E-02 -0.16059E-02 -0.15364E-02
 -0.13882E-02 -0.13285E-02 -0.14027E-02 -0.14117E-02 -0.10099E-02 -0.43555E-04
  0.14961E-02  0.38046E-02  0.71336E-02  0.11593E-01  0.17417E-01  0.24529E-01
  0.31115E-01  0.33893E-01  0.31115E-01  0.24529E-01  0.17417E-01  0.11593E-01
  0.71336E-02  0.38046E-02  0.14961E-02 -0.43544E-04 -0.10099E-02 -0.14117E-02
 -0.14027E-02 -0.13285E-02 -0.13882E-02 -0.15364E-02 -0.16059E-02 -0.13576E-02
 -0.51927E-03  0.10966E-02  0.97477E-02  0.74674E-02  0.33628E-02 -0.19260E-03
 -0.19640E-02 -0.23241E-02 -0.19864E-02 -0.13882E-02 -0.86521E-03 -0.63328E-03
 -0.61029E-03 -0.47814E-03  0.24093E-04  0.95347E-03  0.24432E-02  0.48422E-02
  0.83934E-02  0.13585E-01  0.21914E-01  0.34126E-01  0.46570E-01  0.52012E-01
  0.46570E-01  0.34126E-01  0.21914E-01  0.13585E-01  0.83934E-02  0.48422E-02
  0.24432E-02  0.95348E-03  0.24098E-04 -0.47814E-03 -0.61030E-03 -0.63329E-03
 -0.86522E-03 -0.13882E-02 -0.19864E-02 -0.23241E-02 -0.19640E-02 -0.19260E-03
  0.12667E-01  0.79179E-02  0.11523E-02 -0.33813E-02 -0.44090E-02 -0.35460E-02
 -0.23553E-02 -0.13285E-02 -0.63328E-03 -0.32947E-03 -0.17745E-03  0.14135E-03
  0.73492E-03  0.16050E-02  0.29353E-02  0.50080E-02  0.80457E-02  0.13127E-01
  0.22912E-01  0.38608E-01  0.55058E-01  0.62301E-01  0.55058E-01  0.38608E-01
  0.22912E-01  0.13127E-01  0.80457E-02  0.50080E-02  0.29353E-02  0.16050E-02
  0.73493E-03  0.14135E-03 -0.17745E-03 -0.32947E-03 -0.63329E-03 -0.13285E-02
 -0.23553E-02 -0.35460E-02 -0.44090E-02 -0.33813E-02  0.11668E-01  0.39042E-02
 -0.47819E-02 -0.87966E-02 -0.77377E-02 -0.49460E-02 -0.27560E-02 -0.14027E-02
 -0.61029E-03 -0.17745E-03  0.20143E-03  0.71670E-03  0.13325E-02  0.20363E-02
  0.29380E-02  0.41117E-02  0.57034E-02  0.87430E-02  0.15429E-01  0.26673E-01
  0.38592E-01  0.43852E-01  0.38592E-01  0.26673E-01  0.15429E-01  0.87430E-02
  0.57034E-02  0.41117E-02  0.29380E-02  0.20363E-02  0.13325E-02  0.71670E-03
  0.20142E-03 -0.17745E-03 -0.61030E-03 -0.14027E-02 -0.27560E-02 -0.49460E-02
 -0.77377E-02 -0.87966E-02  0.57906E-02 -0.39108E-02 -0.12373E-01 -0.14183E-01
 -0.10502E-01 -0.59560E-02 -0.30110E-02 -0.14117E-02 -0.47814E-03  0.14135E-03
  0.71670E-03  0.13080E-02  0.18178E-02  0.22319E-02  0.25026E-02  0.24504E-02
  0.19549E-02  0.10047E-02 -0.39274E-03 -0.20677E-02 -0.35113E-02 -0.40892E-02
 -0.35114E-02 -0.20678E-02 -0.39274E-03  0.10047E-02  0.19549E-02  0.24504E-02
  0.25026E-02  0.22319E-02  0.18178E-02  0.13080E-02  0.71670E-03  0.14135E-03
 -0.47814E-03 -0.14117E-02 -0.30111E-02 -0.59560E-02 -0.10502E-01 -0.14183E-01
 -0.12611E-02 -0.10449E-01 -0.16622E-01 -0.15966E-01 -0.10822E-01 -0.57657E-02
 -0.26923E-02 -0.10099E-02  0.24097E-04  0.73493E-03  0.13325E-02  0.18178E-02
  0.20842E-02  0.21050E-02  0.17031E-02  0.50525E-03 -0.18992E-02 -0.66170E-02
 -0.15808E-01 -0.30035E-01 -0.44513E-01 -0.50797E-01 -0.44513E-01 -0.30035E-01
 -0.15808E-01 -0.66170E-02 -0.18992E-02  0.50525E-03  0.17031E-02  0.21050E-02
  0.20842E-02  0.18178E-02  0.13325E-02  0.73492E-03  0.24093E-04 -0.10099E-02
 -0.26923E-02 -0.57657E-02 -0.10822E-01 -0.15966E-01 -0.50211E-02 -0.11609E-01
 -0.14948E-01 -0.13101E-01 -0.83959E-02 -0.41750E-02 -0.15766E-02 -0.43547E-04
  0.95348E-03  0.16050E-02  0.20363E-02  0.22319E-02  0.21050E-02  0.16517E-02
  0.69447E-03 -0.12364E-02 -0.46735E-02 -0.10845E-01 -0.22319E-01 -0.40032E-01
 -0.58258E-01 -0.66232E-01 -0.58258E-01 -0.40032E-01 -0.22319E-01 -0.10845E-01
 -0.46735E-02 -0.12364E-02  0.69447E-03  0.16517E-02  0.21050E-02  0.22319E-02
  0.20363E-02  0.16050E-02  0.95347E-03 -0.43553E-04 -0.15766E-02 -0.41750E-02
 -0.83959E-02 -0.13101E-01 -0.49017E-02 -0.85000E-02 -0.98111E-02 -0.80710E-02
 -0.47681E-02 -0.18164E-02  0.15743E-03  0.14961E-02  0.24432E-02  0.29353E-02
  0.29380E-02  0.25026E-02  0.17031E-02  0.69447E-03 -0.53829E-03 -0.25092E-02
 -0.58865E-02 -0.11361E-01 -0.20300E-01 -0.33385E-01 -0.46802E-01 -0.52707E-01
 -0.46802E-01 -0.33385E-01 -0.20300E-01 -0.11361E-01 -0.58865E-02 -0.25092E-02
 -0.53829E-03  0.69447E-03  0.17031E-02  0.25026E-02  0.29380E-02  0.29353E-02
  0.24432E-02  0.14961E-02  0.15742E-03 -0.18164E-02 -0.47681E-02 -0.80710E-02
 -0.32153E-02 -0.47357E-02 -0.50045E-02 -0.36947E-02 -0.15076E-02  0.61529E-03
  0.23485E-02  0.38046E-02  0.48422E-02  0.50080E-02  0.41117E-02  0.24504E-02
  0.50525E-03 -0.12364E-02 -0.25092E-02 -0.37736E-02 -0.59756E-02 -0.96663E-02
 -0.15072E-01 -0.22190E-01 -0.29210E-01 -0.32282E-01 -0.29210E-01 -0.22190E-01
 -0.15072E-01 -0.96663E-02 -0.59756E-02 -0.37736E-02 -0.25092E-02 -0.12364E-02
  0.50525E-03  0.24504E-02  0.41117E-02  0.50080E-02  0.48422E-02  0.38046E-02
  0.23485E-02  0.61529E-03 -0.15076E-02 -0.36947E-02 -0.15801E-02 -0.20051E-02
 -0.17664E-02 -0.68585E-03  0.97390E-03  0.29426E-02  0.50947E-02  0.71336E-02
  0.83934E-02  0.80457E-02  0.57034E-02  0.19549E-02 -0.18992E-02 -0.46735E-02
 -0.58865E-02 -0.59756E-02 -0.60633E-02 -0.71648E-02 -0.95977E-02 -0.12986E-01
 -0.16192E-01 -0.17550E-01 -0.16192E-01 -0.12986E-01 -0.95977E-02 -0.71648E-02
 -0.60633E-02 -0.59756E-02 -0.58865E-02 -0.46735E-02 -0.18992E-02  0.19549E-02
  0.57034E-02  0.80457E-02  0.83934E-02  0.71336E-02  0.50947E-02  0.29426E-02
  0.97391E-03 -0.68584E-03 -0.22112E-03 -0.17613E-04  0.49042E-03  0.13965E-02
  0.28571E-02  0.52676E-02  0.84803E-02  0.11593E-01  0.13585E-01  0.13127E-01
  0.87430E-02  0.10047E-02 -0.66170E-02 -0.10845E-01 -0.11361E-01 -0.96663E-02
 -0.71648E-02 -0.51705E-02 -0.48389E-02 -0.61016E-02 -0.76721E-02 -0.83332E-02
 -0.76720E-02 -0.61016E-02 -0.48389E-02 -0.51705E-02 -0.71648E-02 -0.96663E-02
 -0.11361E-01 -0.10845E-01 -0.66170E-02  0.10047E-02  0.87430E-02  0.13127E-01
  0.13585E-01  0.11593E-01  0.84803E-02  0.52676E-02  0.28571E-02  0.13965E-02
  0.73173E-03  0.14234E-02  0.20408E-02  0.27141E-02  0.42247E-02  0.75633E-02
  0.12344E-01  0.17417E-01  0.21914E-01  0.22912E-01  0.15429E-01 -0.39274E-03
 -0.15808E-01 -0.22319E-01 -0.20300E-01 -0.15072E-01 -0.95977E-02 -0.48389E-02
 -0.22599E-02 -0.22732E-02 -0.32784E-02 -0.37480E-02 -0.32784E-02 -0.22732E-02
 -0.22599E-02 -0.48389E-02 -0.95977E-02 -0.15072E-01 -0.20300E-01 -0.22319E-01
 -0.15808E-01 -0.39274E-03  0.15429E-01  0.22912E-01  0.21914E-01  0.17417E-01
  0.12344E-01  0.75633E-02  0.42247E-02  0.27141E-02  0.10672E-02  0.21593E-02
  0.28051E-02  0.33098E-02  0.51215E-02  0.95935E-02  0.16226E-01  0.24529E-01
  0.34126E-01  0.38608E-01  0.26673E-01 -0.20677E-02 -0.30035E-01 -0.40032E-01
 -0.33385E-01 -0.22190E-01 -0.12986E-01 -0.61016E-02 -0.22732E-02 -0.19718E-02
 -0.31916E-02 -0.38002E-02 -0.31916E-02 -0.19718E-02 -0.22732E-02 -0.61016E-02
 -0.12986E-01 -0.22190E-01 -0.33385E-01 -0.40032E-01 -0.30035E-01 -0.20677E-02
  0.26673E-01  0.38608E-01  0.34126E-01  0.24529E-01  0.16226E-01  0.95935E-02
  0.51215E-02  0.33098E-02  0.98841E-03  0.23595E-02  0.30268E-02  0.34878E-02
  0.56497E-02  0.11019E-01  0.19273E-01  0.31115E-01  0.46570E-01  0.55058E-01
  0.38592E-01 -0.35114E-02 -0.44513E-01 -0.58258E-01 -0.46802E-01 -0.29210E-01
 -0.16192E-01 -0.76721E-02 -0.32784E-02 -0.31916E-02 -0.49741E-02 -0.58593E-02
 -0.49741E-02 -0.31916E-02 -0.32784E-02 -0.76721E-02 -0.16192E-01 -0.29210E-01
 -0.46802E-01 -0.58258E-01 -0.44513E-01 -0.35113E-02  0.38592E-01  0.55058E-01
  0.46570E-01  0.31115E-01  0.19273E-01  0.11019E-01  0.56497E-02  0.34878E-02
  0.90331E-03  0.23780E-02  0.30590E-02  0.35235E-02  0.58338E-02  0.11535E-01
  0.20453E-01  0.33893E-01  0.52012E-01  0.62301E-01  0.43852E-01 -0.40892E-02
 -0.50797E-01 -0.66232E-01 -0.52707E-01 -0.32282E-01 -0.17550E-01 -0.83332E-02
 -0.37480E-02 -0.38002E-02 -0.58593E-02 -0.68786E-02 -0.58593E-02 -0.38002E-02
 -0.37480E-02 -0.83332E-02 -0.17550E-01 -0.32282E-01 -0.52707E-01 -0.66232E-01
 -0.50797E-01 -0.40892E-02  0.43852E-01  0.62301E-01  0.52012E-01  0.33893E-01
  0.20453E-01  0.11535E-01  0.58338E-02  0.35235E-02  0.98841E-03  0.23595E-02
  0.30268E-02  0.34878E-02  0.56497E-02  0.11019E-01  0.19273E-01  0.31115E-01
  0.46570E-01  0.55058E-01  0.38592E-01 -0.35113E-02 -0.44513E-01 -0.58258E-01
 -0.46802E-01 -0.29210E-01 -0.16192E-01 -0.76720E-02 -0.32784E-02 -0.31915E-02
 -0.49741E-02 -0.58593E-02 -0.49741E-02 -0.31916E-02 -0.32784E-02 -0.76721E-02
 -0.16192E-01 -0.29210E-01 -0.46802E-01 -0.58258E-01 -0.44513E-01 -0.35114E-02
  0.38592E-01  0.55058E-01  0.46570E-01  0.31115E-01  0.19273E-01  0.11019E-01
  0.56497E-02  0.34878E-02  0.10672E-02  0.21593E-02  0.28051E-02  0.33098E-02
  0.51215E-02  0.95935E-02  0.16226E-01  0.24529E-01  0.34126E-01  0.38608E-01
  0.26673E-01 -0.20677E-02 -0.30035E-01 -0.40032E-01 -0.33385E-01 -0.22190E-01
 -0.12986E-01 -0.61016E-02 -0.22732E-02 -0.19718E-02 -0.31916E-02 -0.38002E-02
 -0.31916E-02 -0.19718E-02 -0.22732E-02 -0.61016E-02 -0.12986E-01 -0.22190E-01
 -0.33385E-01 -0.40032E-01 -0.30035E-01 -0.20678E-02  0.26673E-01  0.38608E-01
  0.34126E-01  0.24529E-01  0.16226E-01  0.95935E-02  0.51215E-02  0.33098E-02
  0.73173E-03  0.14234E-02  0.20408E-02  0.27141E-02  0.42247E-02  0.75633E-02
  0.12344E-01  0.17417E-01  0.21914E-01  0.22912E-01  0.15429E-01 -0.39274E-03
 -0.15808E-01 -0.22319E-01 -0.20300E-01 -0.15072E-01 -0.95977E-02 -0.48389E-02
 -0.22599E-02 -0.22732E-02 -0.32784E-02 -0.37480E-02 -0.32784E-02 -0.22732E-02
 -0.22599E-02 -0.48389E-02 -0.95977E-02 -0.15072E-01 -0.20300E-01 -0.22319E-01
 -0.15808E-01 -0.39274E-03  0.15429E-01  0.22912E-01  0.21914E-01  0.17417E-01
  0.12344E-01  0.75633E-02  0.42247E-02  0.27141E-02 -0.22113E-03 -0.17616E-04
  0.49042E-03  0.13965E-02  0.28571E-02  0.52676E-02  0.84803E-02  0.11593E-01
  0.13585E-01  0.13127E-01  0.87430E-02  0.10047E-02 -0.66170E-02 -0.10845E-01
 -0.11361E-01 -0.96663E-02 -0.71648E-02 -0.51705E-02 -0.48389E-02 -0.61016E-02
 -0.76721E-02 -0.83332E-02 -0.76721E-02 -0.61016E-02 -0.48389E-02 -0.51705E-02
 -0.71648E-02 -0.96663E-02 -0.11361E-01 -0.10845E-01 -0.66170E-02  0.10047E-02
  0.87430E-02  0.13127E-01  0.13585E-01  0.11593E-01  0.84803E-02  0.52676E-02
  0.28571E-02  0.13965E-02 -0.15801E-02 -0.20051E-02 -0.17664E-02 -0.68584E-03
  0.97391E-03  0.29426E-02  0.50947E-02  0.71336E-02  0.83934E-02  0.80457E-02
  0.57034E-02  0.19549E-02 -0.18992E-02 -0.46735E-02 -0.58865E-02 -0.59756E-02
 -0.60633E-02 -0.71648E-02 -0.95977E-02 -0.12986E-01 -0.16192E-01 -0.17550E-01
 -0.16192E-01 -0.12986E-01 -0.95977E-02 -0.71648E-02 -0.60633E-02 -0.59756E-02
 -0.58865E-02 -0.46735E-02 -0.18992E-02  0.19549E-02  0.57034E-02  0.80457E-02
  0.83934E-02  0.71336E-02  0.50947E-02  0.29426E-02  0.97390E-03 -0.68585E-03
 -0.32153E-02 -0.47357E-02 -0.50045E-02 -0.36947E-02 -0.15076E-02  0.61529E-03
  0.23485E-02  0.38046E-02  0.48422E-02  0.50080E-02  0.41117E-02  0.24504E-02
  0.50525E-03 -0.12364E-02 -0.25092E-02 -0.37736E-02 -0.59756E-02 -0.96663E-02
 -0.15072E-01 -0.22190E-01 -0.29210E-01 -0.32282E-01 -0.29210E-01 -0.22190E-01
 -0.15072E-01 -0.96663E-02 -0.59756E-02 -0.37736E-02 -0.25092E-02 -0.12364E-02
  0.50525E-03  0.24504E-02  0.41117E-02  0.50080E-02  0.48422E-02  0.38046E-02
  0.23485E-02  0.61529E-03 -0.15076E-02 -0.36947E-02 -0.49017E-02 -0.85000E-02
 -0.98111E-02 -0.80710E-02 -0.47681E-02 -0.18164E-02  0.15742E-03  0.14961E-02
  0.24432E-02  0.29353E-02  0.29380E-02  0.25026E-02  0.17031E-02  0.69447E-03
 -0.53829E-03 -0.25092E-02 -0.58865E-02 -0.11361E-01 -0.20300E-01 -0.33385E-01
 -0.46802E-01 -0.52707E-01 -0.46802E-01 -0.33385E-01 -0.20300E-01 -0.11361E-01
 -0.58865E-02 -0.25092E-02 -0.53829E-03  0.69447E-03  0.17031E-02  0.25026E-02
  0.29380E-02  0.29353E-02  0.24432E-02  0.14961E-02  0.15743E-03 -0.18164E-02
 -0.47681E-02 -0.80710E-02 -0.50211E-02 -0.11609E-01 -0.14948E-01 -0.13101E-01
 -0.83959E-02 -0.41750E-02 -0.15766E-02 -0.43552E-04  0.95347E-03  0.16050E-02
  0.20363E-02  0.22319E-02  0.21050E-02  0.16517E-02  0.69447E-03 -0.12364E-02
 -0.46735E-02 -0.10845E-01 -0.22319E-01 -0.40032E-01 -0.58258E-01 -0.66232E-01
 -0.58258E-01 -0.40032E-01 -0.22319E-01 -0.10845E-01 -0.46735E-02 -0.12364E-02
  0.69447E-03  0.16517E-02  0.21050E-02  0.22319E-02  0.20363E-02  0.16050E-02
  0.95348E-03 -0.43545E-04 -0.15766E-02 -0.41750E-02 -0.83959E-02 -0.13101E-01
 -0.12611E-02 -0.10449E-01 -0.16622E-01 -0.15966E-01 -0.10822E-01 -0.57657E-02
 -0.26923E-02 -0.10099E-02  0.24094E-04  0.73493E-03  0.13325E-02  0.18178E-02
  0.20842E-02  0.21050E-02  0.17031E-02  0.50525E-03 -0.18992E-02 -0.66170E-02
 -0.15808E-01 -0.30035E-01 -0.44513E-01 -0.50797E-01 -0.44513E-01 -0.30035E-01
 -0.15808E-01 -0.66170E-02 -0.18992E-02  0.50525E-03  0.17031E-02  0.21050E-02
  0.20842E-02  0.18178E-02  0.13325E-02  0.73493E-03  0.24098E-04 -0.10099E-02
 -0.26923E-02 -0.57657E-02 -0.10822E-01 -0.15966E-01  0.57906E-02 -0.39108E-02
 -0.12373E-01 -0.14183E-01 -0.10502E-01 -0.59560E-02 -0.30111E-02 -0.14117E-02
 -0.47814E-03  0.14135E-03  0.71670E-03  0.13080E-02  0.18178E-02  0.22319E-02
  0.25026E-02  0.24504E-02  0.19549E-02  0.10047E-02 -0.39274E-03 -0.20677E-02
 -0.35114E-02 -0.40893E-02 -0.35114E-02 -0.20677E-02 -0.39274E-03  0.10047E-02
  0.19549E-02  0.24504E-02  0.25026E-02  0.22319E-02  0.18178E-02  0.13080E-02
  0.71670E-03  0.14135E-03 -0.47814E-03 -0.14117E-02 -0.30111E-02 -0.59560E-02
 -0.10502E-01 -0.14183E-01  0.11668E-01  0.39042E-02 -0.47819E-02 -0.87966E-02
 -0.77377E-02 -0.49460E-02 -0.27560E-02 -0.14027E-02 -0.61030E-03 -0.17745E-03
  0.20142E-03  0.71670E-03  0.13325E-02  0.20363E-02  0.29380E-02  0.41117E-02
  0.57034E-02  0.87430E-02  0.15429E-01  0.26673E-01  0.38592E-01  0.43852E-01
  0.38592E-01  0.26673E-01  0.15429E-01  0.87430E-02  0.57034E-02  0.41117E-02
  0.29380E-02  0.20363E-02  0.13325E-02  0.71670E-03  0.20142E-03 -0.17745E-03
 -0.61030E-03 -0.14027E-02 -0.27560E-02 -0.49460E-02 -0.77377E-02 -0.87966E-02
  0.12667E-01  0.79179E-02  0.11523E-02 -0.33813E-02 -0.44090E-02 -0.35460E-02
 -0.23553E-02 -0.13285E-02 -0.63329E-03 -0.32947E-03 -0.17745E-03  0.14135E-03
  0.73493E-03  0.16050E-02  0.29353E-02  0.50080E-02  0.80457E-02  0.13127E-01
  0.22912E-01  0.38608E-01  0.55058E-01  0.62301E-01  0.55058E-01  0.38608E-01
  0.22912E-01  0.13127E-01  0.80457E-02  0.50080E-02  0.29353E-02  0.16050E-02
  0.73492E-03  0.14135E-03 -0.17745E-03 -0.32947E-03 -0.63329E-03 -0.13285E-02
 -0.23553E-02 -0.35460E-02 -0.44090E-02 -0.33813E-02  0.97477E-02  0.74674E-02
  0.33628E-02 -0.19259E-03 -0.19640E-02 -0.23241E-02 -0.19864E-02 -0.13882E-02
 -0.86522E-03 -0.63329E-03 -0.61030E-03 -0.47814E-03  0.24097E-04  0.95348E-03
  0.24432E-02  0.48422E-02  0.83934E-02  0.13585E-01  0.21914E-01  0.34126E-01
  0.46570E-01  0.52012E-01  0.46570E-01  0.34126E-01  0.21914E-01  0.13585E-01
  0.83934E-02  0.48422E-02  0.24432E-02  0.95347E-03  0.24094E-04 -0.47814E-03
 -0.61030E-03 -0.63329E-03 -0.86522E-03 -0.13882E-02 -0.19864E-02 -0.23241E-02
 -0.19640E-02 -0.19260E-03  0.62058E-02  0.53294E-02  0.33123E-02  0.10966E-02
 -0.51927E-03 -0.13576E-02 -0.16059E-02 -0.15364E-02 -0.13882E-02 -0.13285E-02
 -0.14027E-02 -0.14117E-02 -0.10099E-02 -0.43546E-04  0.14961E-02  0.38046E-02
  0.71336E-02  0.11593E-01  0.17417E-01  0.24529E-01  0.31115E-01  0.33893E-01
  0.31115E-01  0.24529E-01  0.17417E-01  0.11593E-01  0.71336E-02  0.38046E-02
  0.14961E-02 -0.43553E-04 -0.10099E-02 -0.14117E-02 -0.14027E-02 -0.13285E-02
 -0.13882E-02 -0.15364E-02 -0.16059E-02 -0.13576E-02 -0.51927E-03  0.10966E-02
  0.36280E-02  0.34376E-02  0.26831E-02  0.15323E-02  0.35859E-03 -0.55234E-03
 -0.11619E-02 -0.16059E-02 -0.19864E-02 -0.23553E-02 -0.27560E-02 -0.30111E-02
 -0.26923E-02 -0.15766E-02  0.15743E-03  0.23485E-02  0.50947E-02  0.84803E-02
  0.12344E-01  0.16226E-01  0.19273E-01  0.20453E-01  0.19273E-01  0.16226E-01
  0.12344E-01  0.84803E-02  0.50947E-02  0.23485E-02  0.15742E-03 -0.15766E-02
 -0.26923E-02 -0.30111E-02 -0.27560E-02 -0.23553E-02 -0.19864E-02 -0.16059E-02
 -0.11619E-02 -0.55234E-03  0.35859E-03  0.15323E-02  0.18536E-02  0.19773E-02
  0.19360E-02  0.15745E-02  0.93483E-03  0.19312E-03 -0.55234E-03 -0.13576E-02
 -0.23241E-02 -0.35460E-02 -0.49460E-02 -0.59560E-02 -0.57657E-02 -0.41750E-02
 -0.18164E-02  0.61529E-03  0.29426E-02  0.52676E-02  0.75633E-02  0.95935E-02
  0.11019E-01  0.11535E-01  0.11019E-01  0.95935E-02  0.75633E-02  0.52676E-02
  0.29426E-02  0.61528E-03 -0.18164E-02 -0.41750E-02 -0.57657E-02 -0.59560E-02
 -0.49460E-02 -0.35460E-02 -0.23241E-02 -0.13576E-02 -0.55234E-03  0.19312E-03
  0.93483E-03  0.15745E-02  0.82602E-03  0.10255E-02  0.12692E-02  0.13938E-02
  0.12835E-02  0.93482E-03  0.35858E-03 -0.51928E-03 -0.19640E-02 -0.44090E-02
 -0.77377E-02 -0.10502E-01 -0.10822E-01 -0.83959E-02 -0.47681E-02 -0.15076E-02
  0.97390E-03  0.28571E-02  0.42247E-02  0.51215E-02  0.56497E-02  0.58338E-02
  0.56497E-02  0.51215E-02  0.42247E-02  0.28571E-02  0.97390E-03 -0.15076E-02
 -0.47681E-02 -0.83959E-02 -0.10822E-01 -0.10502E-01 -0.77377E-02 -0.44090E-02
 -0.19640E-02 -0.51927E-03  0.35859E-03  0.93483E-03  0.12835E-02  0.13938E-02
  0.64442E-03  0.81436E-03  0.97426E-03  0.11665E-02  0.13938E-02  0.15745E-02
  0.15323E-02  0.10966E-02 -0.19260E-03 -0.33813E-02 -0.87966E-02 -0.14183E-01
 -0.15966E-01 -0.13101E-01 -0.80710E-02 -0.36947E-02 -0.68585E-03  0.13965E-02
  0.27141E-02  0.33098E-02  0.34878E-02  0.35235E-02  0.34878E-02  0.33098E-02
  0.27141E-02  0.13965E-02 -0.68584E-03 -0.36947E-02 -0.80710E-02 -0.13101E-01
 -0.15966E-01 -0.14183E-01 -0.87966E-02 -0.33813E-02 -0.19259E-03  0.10966E-02
  0.15323E-02  0.15745E-02  0.13938E-02  0.11665E-02  0.10805E-02  0.76784E-03
  0.34224E-03  0.24070E-03  0.91408E-03  0.24912E-02  0.47082E-02  0.77604E-02
  0.12100E-01  0.16075E-01  0.15724E-01  0.94032E-02  0.95866E-03 -0.42567E-02
 -0.49542E-02 -0.34756E-02 -0.18532E-02 -0.60435E-03  0.85932E-04  0.91330E-04
 -0.25344E-03 -0.43862E-03 -0.25345E-03  0.91319E-04  0.85928E-04 -0.60434E-03
 -0.18532E-02 -0.34756E-02 -0.49542E-02 -0.42567E-02  0.95866E-03  0.94032E-02
  0.15724E-01  0.16075E-01  0.12100E-01  0.77604E-02  0.47082E-02  0.24912E-02
  0.91409E-03  0.24070E-03  0.76784E-03  0.75761E-03  0.69754E-03  0.86767E-03
  0.15737E-02  0.28011E-02  0.42839E-02  0.63100E-02  0.91296E-02  0.10692E-01
  0.74207E-02 -0.73282E-03 -0.84825E-02 -0.10837E-01 -0.83133E-02 -0.46358E-02
 -0.18715E-02  0.65180E-04  0.13539E-02  0.18997E-02  0.19548E-02  0.19217E-02
  0.19547E-02  0.18997E-02  0.13539E-02  0.65177E-04 -0.18715E-02 -0.46358E-02
 -0.83133E-02 -0.10837E-01 -0.84825E-02 -0.73282E-03  0.74207E-02  0.10692E-01
  0.91296E-02  0.63100E-02  0.42839E-02  0.28011E-02  0.15737E-02  0.86769E-03
  0.34224E-03  0.69755E-03  0.10711E-02  0.14704E-02  0.19594E-02  0.24796E-02
  0.29339E-02  0.35692E-02  0.42363E-02  0.29962E-02 -0.23562E-02 -0.10263E-01
 -0.15437E-01 -0.14578E-01 -0.97870E-02 -0.50340E-02 -0.18091E-02  0.40580E-03
  0.18954E-02  0.25938E-02  0.27707E-02  0.27896E-02  0.27707E-02  0.25938E-02
  0.18954E-02  0.40579E-03 -0.18091E-02 -0.50340E-02 -0.97871E-02 -0.14578E-01
 -0.15437E-01 -0.10263E-01 -0.23562E-02  0.29962E-02  0.42363E-02  0.35692E-02
  0.29339E-02  0.24796E-02  0.19594E-02  0.14704E-02  0.24070E-03  0.86768E-03
  0.14704E-02  0.18281E-02  0.18673E-02  0.16495E-02  0.13237E-02  0.10299E-02
  0.32909E-03 -0.21919E-02 -0.73754E-02 -0.13168E-01 -0.15669E-01 -0.13349E-01
 -0.85513E-02 -0.42658E-02 -0.13164E-02  0.77012E-03  0.21570E-02  0.28372E-02
  0.30838E-02  0.31481E-02  0.30838E-02  0.28372E-02  0.21570E-02  0.77011E-03
 -0.13164E-02 -0.42658E-02 -0.85513E-02 -0.13349E-01 -0.15669E-01 -0.13168E-01
 -0.73754E-02 -0.21919E-02  0.32908E-03  0.10299E-02  0.13237E-02  0.16495E-02
  0.18673E-02  0.18281E-02  0.91409E-03  0.15737E-02  0.19594E-02  0.18673E-02
  0.13412E-02  0.64422E-03  0.52808E-04 -0.44715E-03 -0.13627E-02 -0.34969E-02
 -0.69666E-02 -0.10267E-01 -0.11215E-01 -0.92187E-02 -0.57934E-02 -0.26208E-02
 -0.12543E-03  0.19236E-02  0.35601E-02  0.47216E-02  0.54421E-02  0.56989E-02
  0.54421E-02  0.47216E-02  0.35601E-02  0.19236E-02 -0.12544E-03 -0.26208E-02
 -0.57934E-02 -0.92187E-02 -0.11215E-01 -0.10267E-01 -0.69666E-02 -0.34970E-02
 -0.13628E-02 -0.44715E-03  0.52805E-04  0.64422E-03  0.13412E-02  0.18673E-02
  0.24912E-02  0.28011E-02  0.24796E-02  0.16495E-02  0.64421E-03 -0.18032E-03
 -0.66173E-03 -0.10024E-02 -0.16367E-02 -0.29110E-02 -0.47315E-02 -0.63229E-02
 -0.66370E-02 -0.53343E-02 -0.30606E-02 -0.56980E-03  0.19726E-02  0.46693E-02
  0.73911E-02  0.97901E-02  0.11474E-01  0.12088E-01  0.11474E-01  0.97901E-02
  0.73911E-02  0.46693E-02  0.19726E-02 -0.56980E-03 -0.30606E-02 -0.53343E-02
 -0.66370E-02 -0.63229E-02 -0.47315E-02 -0.29110E-02 -0.16367E-02 -0.10024E-02
 -0.66173E-03 -0.18032E-03  0.64422E-03  0.16495E-02  0.47082E-02  0.42839E-02
  0.29339E-02  0.13237E-02  0.52804E-04 -0.66173E-03 -0.93678E-03 -0.11098E-02
 -0.15080E-02 -0.22409E-02 -0.31627E-02 -0.38477E-02 -0.37401E-02 -0.26184E-02
 -0.72465E-03  0.17352E-02  0.48522E-02  0.86688E-02  0.12951E-01  0.17217E-01
  0.20587E-01  0.21905E-01  0.20587E-01  0.17217E-01  0.12951E-01  0.86688E-02
  0.48522E-02  0.17353E-02 -0.72463E-03 -0.26184E-02 -0.37401E-02 -0.38477E-02
 -0.31627E-02 -0.22409E-02 -0.15080E-02 -0.11098E-02 -0.93678E-03 -0.66173E-03
  0.52808E-04  0.13237E-02  0.77604E-02  0.63100E-02  0.35692E-02  0.10299E-02
 -0.44715E-03 -0.10024E-02 -0.11098E-02 -0.11469E-02 -0.13512E-02 -0.17675E-02
 -0.22059E-02 -0.22967E-02 -0.17161E-02 -0.44143E-03  0.14330E-02  0.40685E-02
  0.77082E-02  0.12465E-01  0.18661E-01  0.26342E-01  0.33573E-01  0.36651E-01
  0.33573E-01  0.26342E-01  0.18661E-01  0.12465E-01  0.77082E-02  0.40686E-02
  0.14330E-02 -0.44142E-03 -0.17161E-02 -0.22967E-02 -0.22059E-02 -0.17675E-02
 -0.13512E-02 -0.11469E-02 -0.11098E-02 -0.10024E-02 -0.44715E-03  0.10299E-02
  0.12100E-01  0.91296E-02  0.42363E-02  0.32908E-03 -0.13628E-02 -0.16367E-02
 -0.15080E-02 -0.13512E-02 -0.12811E-02 -0.13267E-02 -0.12861E-02 -0.84638E-03
  0.96552E-04  0.14162E-02  0.31675E-02  0.57120E-02  0.93333E-02  0.14649E-01
  0.23449E-01  0.36690E-01  0.50359E-01  0.56368E-01  0.50359E-01  0.36690E-01
  0.23449E-01  0.14649E-01  0.93333E-02  0.57120E-02  0.31675E-02  0.14162E-02
  0.96559E-04 -0.84638E-03 -0.12861E-02 -0.13267E-02 -0.12811E-02 -0.13512E-02
 -0.15080E-02 -0.16367E-02 -0.13627E-02  0.32909E-03  0.16075E-01  0.10692E-01
  0.29962E-02 -0.21919E-02 -0.34970E-02 -0.29110E-02 -0.22409E-02 -0.17675E-02
 -0.13267E-02 -0.88068E-03 -0.29921E-03  0.55333E-03  0.15893E-02  0.26824E-02
  0.40141E-02  0.59376E-02  0.87729E-02  0.13809E-01  0.24062E-01  0.40916E-01
  0.58736E-01  0.66605E-01  0.58736E-01  0.40916E-01  0.24062E-01  0.13809E-01
  0.87729E-02  0.59376E-02  0.40141E-02  0.26824E-02  0.15893E-02  0.55333E-03
 -0.29921E-03 -0.88068E-03 -0.13267E-02 -0.17675E-02 -0.22409E-02 -0.29110E-02
 -0.34969E-02 -0.21919E-02  0.15724E-01  0.74207E-02 -0.23562E-02 -0.73754E-02
 -0.69666E-02 -0.47315E-02 -0.31627E-02 -0.22059E-02 -0.12861E-02 -0.29921E-03
  0.73525E-03  0.17569E-02  0.26167E-02  0.32863E-02  0.39319E-02  0.47152E-02
  0.58775E-02  0.85679E-02  0.15122E-01  0.26508E-01  0.38707E-01  0.44109E-01
  0.38707E-01  0.26508E-01  0.15122E-01  0.85679E-02  0.58775E-02  0.47152E-02
  0.39319E-02  0.32863E-02  0.26167E-02  0.17569E-02  0.73525E-03 -0.29921E-03
 -0.12861E-02 -0.22059E-02 -0.31627E-02 -0.47315E-02 -0.69666E-02 -0.73754E-02
  0.94032E-02 -0.73282E-03 -0.10263E-01 -0.13168E-01 -0.10267E-01 -0.63229E-02
 -0.38477E-02 -0.22967E-02 -0.84638E-03  0.55333E-03  0.17569E-02  0.26439E-02
  0.31420E-02  0.33127E-02  0.31752E-02  0.26157E-02  0.15492E-02 -0.15390E-03
 -0.27729E-02 -0.62185E-02 -0.94131E-02 -0.10741E-01 -0.94131E-02 -0.62185E-02
 -0.27729E-02 -0.15390E-03  0.15492E-02  0.26157E-02  0.31752E-02  0.33127E-02
  0.31420E-02  0.26439E-02  0.17569E-02  0.55333E-03 -0.84639E-03 -0.22967E-02
 -0.38477E-02 -0.63229E-02 -0.10267E-01 -0.13168E-01  0.95866E-03 -0.84825E-02
 -0.15437E-01 -0.15669E-01 -0.11215E-01 -0.66370E-02 -0.37401E-02 -0.17161E-02
  0.96557E-04  0.15893E-02  0.26167E-02  0.31420E-02  0.31881E-02  0.28452E-02
  0.19998E-02  0.32027E-03 -0.26273E-02 -0.82679E-02 -0.19402E-01 -0.36807E-01
 -0.54586E-01 -0.62309E-01 -0.54586E-01 -0.36807E-01 -0.19402E-01 -0.82679E-02
 -0.26273E-02  0.32027E-03  0.19999E-02  0.28452E-02  0.31881E-02  0.31420E-02
  0.26167E-02  0.15893E-02  0.96550E-04 -0.17161E-02 -0.37401E-02 -0.66370E-02
 -0.11215E-01 -0.15669E-01 -0.42567E-02 -0.10837E-01 -0.14578E-01 -0.13349E-01
 -0.92187E-02 -0.53343E-02 -0.26184E-02 -0.44142E-03  0.14162E-02  0.26824E-02
  0.32863E-02  0.33127E-02  0.28452E-02  0.20133E-02  0.71310E-03 -0.15120E-02
 -0.52573E-02 -0.12091E-01 -0.25269E-01 -0.46028E-01 -0.67540E-01 -0.76971E-01
 -0.67540E-01 -0.46028E-01 -0.25269E-01 -0.12091E-01 -0.52573E-02 -0.15120E-02
  0.71310E-03  0.20133E-02  0.28452E-02  0.33127E-02  0.32863E-02  0.26823E-02
  0.14162E-02 -0.44143E-03 -0.26184E-02 -0.53343E-02 -0.92187E-02 -0.13349E-01
 -0.49542E-02 -0.83133E-02 -0.97870E-02 -0.85513E-02 -0.57934E-02 -0.30606E-02
 -0.72464E-03  0.14330E-02  0.31675E-02  0.40141E-02  0.39319E-02  0.31752E-02
  0.19999E-02  0.71310E-03 -0.61501E-03 -0.25489E-02 -0.58800E-02 -0.11534E-01
 -0.21335E-01 -0.36225E-01 -0.51715E-01 -0.58561E-01 -0.51715E-01 -0.36225E-01
 -0.21335E-01 -0.11534E-01 -0.58800E-02 -0.25489E-02 -0.61500E-03  0.71310E-03
  0.19999E-02  0.31752E-02  0.39319E-02  0.40141E-02  0.31675E-02  0.14330E-02
 -0.72465E-03 -0.30606E-02 -0.57934E-02 -0.85513E-02 -0.34756E-02 -0.46358E-02
 -0.50340E-02 -0.42658E-02 -0.26208E-02 -0.56980E-03  0.17353E-02  0.40686E-02
  0.57120E-02  0.59376E-02  0.47152E-02  0.26157E-02  0.32026E-03 -0.15120E-02