       #
       # Generated by the Wannier90 code http://www.wannier.org
       # On 23Sep2015 at 16:17:37 
       #
CRYSTAL
PRIMVEC
   3.8425000   0.0000000   0.0000000
   0.0000000   3.8425000   0.0000000
   0.0000000   0.0000000   3.8425000
CONVVEC
   3.8425000   0.0000000   0.0000000
   0.0000000   3.8425000   0.0000000
   0.0000000   0.0000000   3.8425000
PRIMCOORD
     5  1
V       0.0000000   0.0000000   0.0000000
Sr      1.9212500   1.9212500   1.9212500
O       1.9212500   0.0000000   0.0000000
O       0.0000000   1.9212500   0.0000000
O       0.0000000   0.0000000   1.9212500


BEGIN_BLOCK_DATAGRID_3D
3D_field
BEGIN_DATAGRID_3D_UNKNOWN
    40    40    40
   -4.034625   -4.034625   -4.034625
   7.4928749   0.0000000   0.0000000
   0.0000000   7.4928749   0.0000000
   0.0000000   0.0000000   7.4928749
  0.39807E-08  0.19115E-03  0.33284E-03  0.31438E-03 -0.11438E-04 -0.60642E-03
 -0.12287E-02 -0.19077E-02 -0.27311E-02 -0.28566E-02 -0.92428E-03  0.27293E-02
  0.54803E-02  0.52211E-02  0.27013E-02  0.44648E-05 -0.19387E-02 -0.31522E-02
 -0.34716E-02 -0.29172E-02 -0.21506E-02 -0.18280E-02 -0.21506E-02 -0.29172E-02
 -0.34716E-02 -0.31522E-02 -0.19387E-02  0.44665E-05  0.27013E-02  0.52211E-02
  0.54803E-02  0.27293E-02 -0.92428E-03 -0.28566E-02 -0.27311E-02 -0.19077E-02
 -0.12287E-02 -0.60643E-03 -0.11449E-04  0.31437E-03 -0.19115E-03  0.45320E-08
  0.16309E-03  0.19042E-03 -0.14402E-03 -0.88129E-03 -0.17821E-02 -0.29439E-02
 -0.46493E-02 -0.59973E-02 -0.49903E-02 -0.12146E-02  0.27354E-02  0.39842E-02
  0.25049E-02  0.22051E-03 -0.16530E-02 -0.28955E-02 -0.32798E-02 -0.27930E-02
 -0.20527E-02 -0.17296E-02 -0.20527E-02 -0.27930E-02 -0.32798E-02 -0.28955E-02
 -0.16530E-02  0.22051E-03  0.25049E-02  0.39842E-02  0.27354E-02 -0.12146E-02
 -0.49903E-02 -0.59973E-02 -0.46493E-02 -0.29439E-02 -0.17821E-02 -0.88130E-03
 -0.14403E-03  0.19041E-03 -0.33283E-03 -0.16308E-03  0.35942E-08  0.48172E-04
 -0.29361E-03 -0.10976E-02 -0.20874E-02 -0.33399E-02 -0.53178E-02 -0.74156E-02
 -0.75658E-02 -0.46737E-02 -0.61520E-03  0.16754E-02  0.13960E-02 -0.14348E-03
 -0.17112E-02 -0.28443E-02 -0.32486E-02 -0.28950E-02 -0.22912E-02 -0.20191E-02
 -0.22912E-02 -0.28950E-02 -0.32486E-02 -0.28443E-02 -0.17112E-02 -0.14348E-03
  0.13960E-02  0.16754E-02 -0.61520E-03 -0.46737E-02 -0.75658E-02 -0.74156E-02
 -0.53178E-02 -0.33399E-02 -0.20874E-02 -0.10976E-02 -0.29361E-03  0.48169E-04
 -0.31437E-03 -0.19041E-03 -0.48167E-04  0.12248E-08 -0.30337E-03 -0.10267E-02
 -0.19057E-02 -0.29300E-02 -0.45188E-02 -0.64120E-02 -0.70715E-02 -0.53311E-02
 -0.22194E-02  0.19258E-04  0.36962E-03 -0.49651E-03 -0.16320E-02 -0.25434E-02
 -0.29435E-02 -0.27826E-02 -0.23999E-02 -0.22170E-02 -0.23999E-02 -0.27826E-02
 -0.29435E-02 -0.25434E-02 -0.16320E-02 -0.49651E-03  0.36962E-03  0.19259E-04
 -0.22194E-02 -0.53311E-02 -0.70715E-02 -0.64120E-02 -0.45188E-02 -0.29300E-02
 -0.19057E-02 -0.10267E-02 -0.30336E-03  0.28847E-08  0.11446E-04  0.14403E-03
  0.29361E-03  0.30337E-03 -0.19185E-08 -0.63114E-03 -0.13955E-02 -0.22050E-02
 -0.32288E-02 -0.43401E-02 -0.47248E-02 -0.37055E-02 -0.18012E-02 -0.30599E-03
  0.74638E-04 -0.38227E-03 -0.11262E-02 -0.18038E-02 -0.21926E-02 -0.22215E-02
 -0.20618E-02 -0.19710E-02 -0.20618E-02 -0.22215E-02 -0.21926E-02 -0.18038E-02
 -0.11262E-02 -0.38227E-03  0.74634E-04 -0.30599E-03 -0.18012E-02 -0.37055E-02
 -0.47248E-02 -0.43401E-02 -0.32288E-02 -0.22050E-02 -0.13955E-02 -0.63112E-03
  0.10609E-07  0.30338E-03  0.60643E-03  0.88130E-03  0.10976E-02  0.10267E-02
  0.63113E-03 -0.27006E-08 -0.74265E-03 -0.14847E-02 -0.21509E-02 -0.25892E-02
 -0.25072E-02 -0.17693E-02 -0.71006E-03  0.92146E-04  0.33098E-03  0.11104E-03
 -0.31281E-03 -0.73773E-03 -0.10260E-02 -0.11189E-02 -0.10801E-02 -0.10441E-02
 -0.10801E-02 -0.11190E-02 -0.10260E-02 -0.73773E-03 -0.31282E-03  0.11103E-03
  0.33097E-03  0.92141E-04 -0.71007E-03 -0.17693E-02 -0.25072E-02 -0.25892E-02
 -0.21509E-02 -0.14847E-02 -0.74264E-03  0.12566E-07  0.63115E-03  0.10267E-02
  0.12287E-02  0.17821E-02  0.20874E-02  0.19057E-02  0.13955E-02  0.74265E-03
 -0.11337E-08 -0.72493E-03 -0.12297E-02 -0.13603E-02 -0.10912E-02 -0.53923E-03
  0.74409E-04  0.53921E-03  0.75754E-03  0.75883E-03  0.64854E-03  0.53129E-03
  0.47828E-03  0.53384E-03  0.66424E-03  0.73587E-03  0.66424E-03  0.53383E-03
  0.47827E-03  0.53128E-03  0.64852E-03  0.75881E-03  0.75753E-03  0.53921E-03
  0.74407E-04 -0.53922E-03 -0.10912E-02 -0.13603E-02 -0.12297E-02 -0.72492E-03
  0.89072E-08  0.74266E-03  0.13955E-02  0.19057E-02  0.19077E-02  0.29439E-02
  0.33399E-02  0.29300E-02  0.22050E-02  0.14847E-02  0.72493E-03 -0.12686E-08
 -0.43214E-03 -0.47547E-03 -0.25328E-03  0.95668E-04  0.49881E-03  0.89983E-03
  0.12383E-02  0.14877E-02  0.16749E-02  0.18711E-02  0.22178E-02  0.28470E-02
  0.35886E-02  0.39360E-02  0.35886E-02  0.28470E-02  0.22178E-02  0.18711E-02
  0.16749E-02  0.14877E-02  0.12383E-02  0.89983E-03  0.49881E-03  0.95672E-04
 -0.25328E-03 -0.47546E-03 -0.43213E-03  0.57900E-08  0.72494E-03  0.14847E-02
  0.22050E-02  0.29300E-02  0.27311E-02  0.46493E-02  0.53178E-02  0.45188E-02
  0.32288E-02  0.21510E-02  0.12297E-02  0.43213E-03 -0.30388E-08 -0.24520E-04
  0.14640E-03  0.40250E-03  0.78062E-03  0.12668E-02  0.17699E-02  0.22167E-02
  0.25979E-02  0.30828E-02  0.41331E-02  0.60841E-02  0.83084E-02  0.93248E-02
  0.83084E-02  0.60840E-02  0.41331E-02  0.30828E-02  0.25979E-02  0.22166E-02
  0.17699E-02  0.12668E-02  0.78062E-03  0.40250E-03  0.14641E-03 -0.24511E-04
  0.48779E-08  0.43214E-03  0.12297E-02  0.21510E-02  0.32288E-02  0.45188E-02
  0.28566E-02  0.59973E-02  0.74156E-02  0.64120E-02  0.43401E-02  0.25892E-02
  0.13603E-02  0.47546E-03  0.24512E-04 -0.40049E-08  0.18424E-03  0.49418E-03
  0.98079E-03  0.15893E-02  0.21853E-02  0.26850E-02  0.31162E-02  0.38707E-02
  0.58488E-02  0.95653E-02  0.13721E-01  0.15596E-01  0.13721E-01  0.95653E-02
  0.58488E-02  0.38707E-02  0.31162E-02  0.26849E-02  0.21853E-02  0.15893E-02
  0.98078E-03  0.49419E-03  0.18425E-03  0.49728E-08  0.24521E-04  0.47547E-03
  0.13603E-02  0.25892E-02  0.43401E-02  0.64120E-02  0.92428E-03  0.49903E-02
  0.75658E-02  0.70715E-02  0.47248E-02  0.25072E-02  0.10912E-02  0.25328E-03
 -0.14641E-03 -0.18425E-03 -0.24040E-08  0.38313E-03  0.97594E-03  0.16394E-02
  0.22073E-02  0.26302E-02  0.30132E-02  0.39010E-02  0.63987E-02  0.11046E-01
  0.16173E-01  0.18469E-01  0.16173E-01  0.11046E-01  0.63987E-02  0.39010E-02
  0.30131E-02  0.26302E-02  0.22073E-02  0.16394E-02  0.97594E-03  0.38313E-03
  0.41828E-08 -0.18424E-03 -0.14640E-03  0.25328E-03  0.10912E-02  0.25072E-02
  0.47248E-02  0.70715E-02 -0.27293E-02  0.12146E-02  0.46737E-02  0.53311E-02
  0.37055E-02  0.17693E-02  0.53922E-03 -0.95673E-04 -0.40250E-03 -0.49419E-03
 -0.38313E-03  0.43637E-09  0.62460E-03  0.12771E-02  0.17795E-02  0.21218E-02
  0.24288E-02  0.31496E-02  0.51611E-02  0.88930E-02  0.13011E-01  0.14856E-01
  0.13011E-01  0.88930E-02  0.51611E-02  0.31496E-02  0.24288E-02  0.21218E-02
  0.17795E-02  0.12771E-02  0.62460E-03  0.25532E-08 -0.38313E-03 -0.49418E-03
 -0.40250E-03 -0.95670E-04  0.53922E-03  0.17693E-02  0.37055E-02  0.53311E-02
 -0.54803E-02 -0.27354E-02  0.61519E-03  0.22194E-02  0.18012E-02  0.71007E-03
 -0.74408E-04 -0.49881E-03 -0.78062E-03 -0.98078E-03 -0.97594E-03 -0.62460E-03
  0.17372E-08  0.64561E-03  0.11439E-02  0.14876E-02  0.17319E-02  0.20532E-02
  0.28606E-02  0.44408E-02  0.62672E-02  0.71046E-02  0.62672E-02  0.44408E-02
  0.28606E-02  0.20533E-02  0.17319E-02  0.14876E-02  0.11439E-02  0.64561E-03
  0.18216E-08 -0.62460E-03 -0.97594E-03 -0.98079E-03 -0.78062E-03 -0.49881E-03
 -0.74412E-04  0.71006E-03  0.18012E-02  0.22194E-02 -0.52211E-02 -0.39842E-02
 -0.16754E-02 -0.19261E-04  0.30599E-03 -0.92143E-04 -0.53921E-03 -0.89983E-03
 -0.12668E-02 -0.15893E-02 -0.16394E-02 -0.12771E-02 -0.64561E-03 -0.90610E-09
  0.53012E-03  0.91515E-03  0.11120E-02  0.10720E-02  0.84649E-03  0.62412E-03
  0.54674E-03  0.54942E-03  0.54675E-03  0.62413E-03  0.84651E-03  0.10720E-02
  0.11120E-02  0.91517E-03  0.53012E-03  0.41640E-08 -0.64561E-03 -0.12771E-02
 -0.16394E-02 -0.15893E-02 -0.12668E-02 -0.89984E-03 -0.53922E-03 -0.92149E-04
  0.30598E-03 -0.19257E-04 -0.27013E-02 -0.25049E-02 -0.13961E-02 -0.36963E-03
 -0.74637E-04 -0.33097E-03 -0.75753E-03 -0.12383E-02 -0.17699E-02 -0.21853E-02
 -0.22073E-02 -0.17795E-02 -0.11439E-02 -0.53012E-03 -0.76920E-08  0.39959E-03
  0.55867E-03  0.36032E-03 -0.24195E-03 -0.10945E-02 -0.18363E-02 -0.21260E-02
 -0.18363E-02 -0.10945E-02 -0.24193E-03  0.36035E-03  0.55870E-03  0.39961E-03
  0.10600E-07 -0.53011E-03 -0.11439E-02 -0.17795E-02 -0.22073E-02 -0.21853E-02
 -0.17699E-02 -0.12383E-02 -0.75754E-03 -0.33098E-03 -0.74641E-04 -0.36963E-03
 -0.44656E-05 -0.22051E-03  0.14348E-03  0.49651E-03  0.38227E-03 -0.11104E-03
 -0.75882E-03 -0.14877E-02 -0.22166E-02 -0.26849E-02 -0.26302E-02 -0.21218E-02
 -0.14876E-02 -0.91516E-03 -0.39961E-03 -0.13282E-07  0.14404E-03 -0.44334E-04
 -0.54443E-03 -0.12046E-02 -0.17539E-02 -0.19628E-02 -0.17539E-02 -0.12046E-02
 -0.54442E-03 -0.44313E-04  0.14407E-03  0.16250E-07 -0.39958E-03 -0.91515E-03
 -0.14876E-02 -0.21218E-02 -0.26302E-02 -0.26850E-02 -0.22167E-02 -0.14877E-02
 -0.75883E-03 -0.11105E-03  0.38227E-03  0.49651E-03  0.19387E-02  0.16530E-02
  0.17112E-02  0.16320E-02  0.11262E-02  0.31281E-03 -0.64853E-03 -0.16749E-02
 -0.25979E-02 -0.31162E-02 -0.30131E-02 -0.24288E-02 -0.17319E-02 -0.11120E-02
 -0.55870E-03 -0.14407E-03 -0.84823E-08 -0.11776E-03 -0.36772E-03 -0.61022E-03
 -0.75454E-03 -0.79559E-03 -0.75454E-03 -0.61023E-03 -0.36772E-03 -0.11775E-03
  0.12218E-07 -0.14404E-03 -0.55867E-03 -0.11120E-02 -0.17319E-02 -0.24288E-02
 -0.30132E-02 -0.31162E-02 -0.25979E-02 -0.16749E-02 -0.64854E-03  0.31280E-03
  0.11262E-02  0.16320E-02  0.31522E-02  0.28955E-02  0.28443E-02  0.25434E-02
  0.18038E-02  0.73773E-03 -0.53128E-03 -0.18711E-02 -0.30828E-02 -0.38707E-02
 -0.39010E-02 -0.31496E-02 -0.20533E-02 -0.10720E-02 -0.36034E-03  0.44316E-04
  0.11775E-03  0.61789E-08 -0.58583E-04  0.60743E-04  0.26298E-03  0.36134E-03
  0.26297E-03  0.60731E-04 -0.58596E-04  0.64995E-09  0.11776E-03  0.44337E-04
 -0.36032E-03 -0.10720E-02 -0.20532E-02 -0.31496E-02 -0.39010E-02 -0.38707E-02
 -0.30828E-02 -0.18711E-02 -0.53129E-03  0.73772E-03  0.18038E-02  0.25434E-02
  0.34716E-02  0.32798E-02  0.32486E-02  0.29435E-02  0.21926E-02  0.10260E-02
 -0.47828E-03 -0.22178E-02 -0.41331E-02 -0.58488E-02 -0.63987E-02 -0.51611E-02
 -0.28606E-02 -0.84651E-03  0.24193E-03  0.54442E-03  0.36773E-03  0.58604E-04
  0.12134E-07  0.31525E-03  0.74929E-03  0.94505E-03  0.74928E-03  0.31524E-03
 -0.38697E-08  0.58590E-04  0.36772E-03  0.54443E-03  0.24195E-03 -0.84649E-03
 -0.28606E-02 -0.51611E-02 -0.63987E-02 -0.58488E-02 -0.41331E-02 -0.22178E-02
 -0.47828E-03  0.10260E-02  0.21926E-02  0.29435E-02  0.29172E-02  0.27930E-02
  0.28950E-02  0.27826E-02  0.22215E-02  0.11189E-02 -0.53384E-03 -0.28470E-02
 -0.60840E-02 -0.95653E-02 -0.11046E-01 -0.88930E-02 -0.44408E-02 -0.62413E-03
  0.10945E-02  0.12046E-02  0.61023E-03 -0.60724E-04 -0.31523E-03  0.50949E-08
  0.52834E-03  0.77393E-03  0.52834E-03 -0.14121E-08 -0.31524E-03 -0.60738E-04
  0.61022E-03  0.12046E-02  0.10945E-02 -0.62412E-03 -0.44408E-02 -0.88930E-02
 -0.11046E-01 -0.95653E-02 -0.60841E-02 -0.28470E-02 -0.53384E-03  0.11189E-02
  0.22215E-02  0.27826E-02  0.21506E-02  0.20527E-02  0.22912E-02  0.23999E-02
  0.20618E-02  0.10801E-02 -0.66425E-03 -0.35886E-02 -0.83084E-02 -0.13721E-01
 -0.16173E-01 -0.13011E-01 -0.62672E-02 -0.54675E-03  0.18363E-02  0.17539E-02
  0.75455E-03 -0.26296E-03 -0.74928E-03 -0.52834E-03 -0.57409E-09  0.25796E-03
 -0.61733E-09 -0.52834E-03 -0.74929E-03 -0.26297E-03  0.75454E-03  0.17539E-02
  0.18363E-02 -0.54675E-03 -0.62672E-02 -0.13011E-01 -0.16173E-01 -0.13721E-01
 -0.83084E-02 -0.35886E-02 -0.66424E-03  0.10801E-02  0.20618E-02  0.23999E-02
  0.18280E-02  0.17296E-02  0.20191E-02  0.22170E-02  0.19710E-02  0.10441E-02
 -0.73588E-03 -0.39360E-02 -0.93248E-02 -0.15596E-01 -0.18469E-01 -0.14856E-01
 -0.71046E-02 -0.54942E-03  0.21260E-02  0.19628E-02  0.79560E-03 -0.36134E-03
 -0.94505E-03 -0.77393E-03 -0.25796E-03 -0.61894E-09 -0.25796E-03 -0.77393E-03
 -0.94505E-03 -0.36134E-03  0.79559E-03  0.19628E-02  0.21260E-02 -0.54943E-03
 -0.71046E-02 -0.14856E-01 -0.18469E-01 -0.15596E-01 -0.93248E-02 -0.39360E-02
 -0.73587E-03  0.10441E-02  0.19710E-02  0.22170E-02  0.21506E-02  0.20527E-02
  0.22912E-02  0.23999E-02  0.20618E-02  0.10801E-02 -0.66425E-03 -0.35886E-02
 -0.83084E-02 -0.13721E-01 -0.16173E-01 -0.13011E-01 -0.62672E-02 -0.54674E-03
  0.18363E-02  0.17539E-02  0.75454E-03 -0.26297E-03 -0.74929E-03 -0.52834E-03
 -0.12297E-09  0.25796E-03  0.33048E-09 -0.52834E-03 -0.74929E-03 -0.26297E-03
  0.75454E-03  0.17539E-02  0.18363E-02 -0.54675E-03 -0.62672E-02 -0.13011E-01
 -0.16173E-01 -0.13721E-01 -0.83084E-02 -0.35886E-02 -0.66424E-03  0.10801E-02
  0.20618E-02  0.23999E-02  0.29172E-02  0.27930E-02  0.28950E-02  0.27826E-02
  0.22215E-02  0.11189E-02 -0.53384E-03 -0.28470E-02 -0.60841E-02 -0.95653E-02
 -0.11046E-01 -0.88930E-02 -0.44408E-02 -0.62412E-03  0.10945E-02  0.12046E-02
  0.61022E-03 -0.60740E-04 -0.31524E-03 -0.30175E-08  0.52834E-03  0.77393E-03
  0.52834E-03  0.29760E-09 -0.31524E-03 -0.60734E-04  0.61022E-03  0.12046E-02
  0.10945E-02 -0.62414E-03 -0.44408E-02 -0.88930E-02 -0.11046E-01 -0.95653E-02
 -0.60840E-02 -0.28470E-02 -0.53383E-03  0.11190E-02  0.22215E-02  0.27826E-02
  0.34716E-02  0.32798E-02  0.32486E-02  0.29435E-02  0.21926E-02  0.10260E-02
 -0.47828E-03 -0.22178E-02 -0.41331E-02 -0.58488E-02 -0.63987E-02 -0.51611E-02
 -0.28606E-02 -0.84650E-03  0.24195E-03  0.54443E-03  0.36772E-03  0.58587E-04
 -0.83703E-08  0.31523E-03  0.74928E-03  0.94505E-03  0.74929E-03  0.31524E-03
  0.77207E-09  0.58592E-04  0.36772E-03  0.54441E-03  0.24192E-03 -0.84652E-03
 -0.28606E-02 -0.51611E-02 -0.63987E-02 -0.58488E-02 -0.41331E-02 -0.22178E-02
 -0.47827E-03  0.10260E-02  0.21926E-02  0.29435E-02  0.31522E-02  0.28955E-02
  0.28443E-02  0.25434E-02  0.18038E-02  0.73773E-03 -0.53129E-03 -0.18711E-02
 -0.30828E-02 -0.38707E-02 -0.39010E-02 -0.31496E-02 -0.20532E-02 -0.10720E-02
 -0.36032E-03  0.44334E-04  0.11776E-03 -0.28234E-08 -0.58601E-04  0.60727E-04
  0.26297E-03  0.36134E-03  0.26297E-03  0.60734E-04 -0.58594E-04 -0.45047E-08
  0.11775E-03  0.44309E-04 -0.36035E-03 -0.10720E-02 -0.20533E-02 -0.31496E-02
 -0.39010E-02 -0.38707E-02 -0.30828E-02 -0.18711E-02 -0.53128E-03  0.73773E-03
  0.18038E-02  0.25434E-02  0.19387E-02  0.16530E-02  0.17112E-02  0.16320E-02
  0.11262E-02  0.31281E-03 -0.64854E-03 -0.16749E-02 -0.25979E-02 -0.31162E-02
 -0.30132E-02 -0.24288E-02 -0.17319E-02 -0.11120E-02 -0.55867E-03 -0.14404E-03
  0.10347E-07 -0.11775E-03 -0.36772E-03 -0.61023E-03 -0.75455E-03 -0.79560E-03
 -0.75454E-03 -0.61023E-03 -0.36773E-03 -0.11777E-03 -0.14641E-07 -0.14407E-03
 -0.55870E-03 -0.11120E-02 -0.17319E-02 -0.24288E-02 -0.30131E-02 -0.31162E-02
 -0.25979E-02 -0.16749E-02 -0.64852E-03  0.31282E-03  0.11262E-02  0.16320E-02
 -0.44660E-05 -0.22051E-03  0.14348E-03  0.49651E-03  0.38227E-03 -0.11104E-03
 -0.75882E-03 -0.14877E-02 -0.22167E-02 -0.26849E-02 -0.26302E-02 -0.21218E-02
 -0.14876E-02 -0.91515E-03 -0.39959E-03  0.13558E-07  0.14407E-03 -0.44314E-04
 -0.54442E-03 -0.12046E-02 -0.17539E-02 -0.19628E-02 -0.17539E-02 -0.12046E-02
 -0.54443E-03 -0.44337E-04  0.14404E-03 -0.16363E-07 -0.39961E-03 -0.91517E-03
 -0.14876E-02 -0.21218E-02 -0.26302E-02 -0.26849E-02 -0.22166E-02 -0.14877E-02
 -0.75881E-03 -0.11104E-03  0.38227E-03  0.49651E-03 -0.27013E-02 -0.25049E-02
 -0.13960E-02 -0.36962E-03 -0.74636E-04 -0.33098E-03 -0.75754E-03 -0.12383E-02
 -0.17699E-02 -0.21853E-02 -0.22073E-02 -0.17795E-02 -0.11439E-02 -0.53012E-03
  0.76462E-08  0.39961E-03  0.55870E-03  0.36035E-03 -0.24193E-03 -0.10945E-02
 -0.18363E-02 -0.21260E-02 -0.18363E-02 -0.10945E-02 -0.24195E-03  0.36032E-03
  0.55867E-03  0.39959E-03 -0.98631E-08 -0.53012E-03 -0.11439E-02 -0.17795E-02
 -0.22073E-02 -0.21853E-02 -0.17699E-02 -0.12383E-02 -0.75753E-03 -0.33097E-03
 -0.74635E-04 -0.36963E-03 -0.52211E-02 -0.39842E-02 -0.16754E-02 -0.19258E-04
  0.30599E-03 -0.92145E-04 -0.53921E-03 -0.89983E-03 -0.12668E-02 -0.15893E-02
 -0.16394E-02 -0.12771E-02 -0.64561E-03  0.18659E-08  0.53012E-03  0.91517E-03
  0.11120E-02  0.10720E-02  0.84652E-03  0.62414E-03  0.54675E-03  0.54943E-03
  0.54675E-03  0.62412E-03  0.84650E-03  0.10720E-02  0.11120E-02  0.91515E-03
  0.53011E-03 -0.42746E-08 -0.64561E-03 -0.12771E-02 -0.16394E-02 -0.15893E-02
 -0.12668E-02 -0.89983E-03 -0.53921E-03 -0.92142E-04  0.30599E-03 -0.19261E-04
 -0.54803E-02 -0.27354E-02  0.61520E-03  0.22194E-02  0.18012E-02  0.71007E-03
 -0.74408E-04 -0.49881E-03 -0.78061E-03 -0.98078E-03 -0.97594E-03 -0.62460E-03
  0.41969E-09  0.64561E-03  0.11439E-02  0.14876E-02  0.17319E-02  0.20533E-02
  0.28606E-02  0.44408E-02  0.62672E-02  0.71046E-02  0.62672E-02  0.44408E-02
  0.28606E-02  0.20532E-02  0.17319E-02  0.14876E-02  0.11439E-02  0.64561E-03
 -0.34003E-08 -0.62460E-03 -0.97594E-03 -0.98079E-03 -0.78062E-03 -0.49881E-03
 -0.74407E-04  0.71007E-03  0.18012E-02  0.22194E-02 -0.27293E-02  0.12146E-02
  0.46737E-02  0.53311E-02  0.37055E-02  0.17693E-02  0.53923E-03 -0.95668E-04
 -0.40250E-03 -0.49418E-03 -0.38313E-03  0.21854E-08  0.62460E-03  0.12771E-02
  0.17795E-02  0.21218E-02  0.24288E-02  0.31496E-02  0.51611E-02  0.88930E-02
  0.13011E-01  0.14856E-01  0.13011E-01  0.88930E-02  0.51611E-02  0.31496E-02
  0.24288E-02  0.21218E-02  0.17795E-02  0.12771E-02  0.62460E-03 -0.53398E-08
 -0.38314E-03 -0.49419E-03 -0.40251E-03 -0.95672E-04  0.53922E-03  0.17693E-02
  0.37055E-02  0.53311E-02  0.92428E-03  0.49903E-02  0.75658E-02  0.70715E-02
  0.47248E-02  0.25072E-02  0.10912E-02  0.25328E-03 -0.14640E-03 -0.18424E-03
  0.40315E-08  0.38313E-03  0.97594E-03  0.16394E-02  0.22073E-02  0.26302E-02
  0.30131E-02  0.39010E-02  0.63987E-02  0.11046E-01  0.16173E-01  0.18469E-01
  0.16173E-01  0.11046E-01  0.63987E-02  0.39010E-02  0.30132E-02  0.26302E-02
  0.22073E-02  0.16394E-02  0.97593E-03  0.38312E-03 -0.70561E-08 -0.18425E-03
 -0.14641E-03  0.25328E-03  0.10912E-02  0.25072E-02  0.47248E-02  0.70715E-02
  0.28566E-02  0.59973E-02  0.74156E-02  0.64120E-02  0.43401E-02  0.25892E-02
  0.13603E-02  0.47547E-03  0.24519E-04  0.36706E-08  0.18425E-03  0.49419E-03
  0.98079E-03  0.15893E-02  0.21853E-02  0.26849E-02  0.31162E-02  0.38707E-02
  0.58488E-02  0.95653E-02  0.13721E-01  0.15596E-01  0.13721E-01  0.95653E-02
  0.58488E-02  0.38707E-02  0.31162E-02  0.26849E-02  0.21853E-02  0.15893E-02
  0.98078E-03  0.49418E-03  0.18424E-03 -0.69190E-08  0.24510E-04  0.47546E-03
  0.13603E-02  0.25892E-02  0.43401E-02  0.64120E-02  0.27311E-02  0.46493E-02
  0.53178E-02  0.45188E-02  0.32288E-02  0.21509E-02  0.12297E-02  0.43213E-03
  0.12435E-08 -0.24514E-04  0.14641E-03  0.40250E-03  0.78062E-03  0.12668E-02
  0.17699E-02  0.22166E-02  0.25979E-02  0.30828E-02  0.41331E-02  0.60840E-02
  0.83084E-02  0.93248E-02  0.83084E-02  0.60841E-02  0.41331E-02  0.30828E-02
  0.25979E-02  0.22167E-02  0.17699E-02  0.12668E-02  0.78062E-03  0.40250E-03
  0.14640E-03 -0.24522E-04 -0.58038E-08  0.43213E-03  0.12297E-02  0.21509E-02
  0.32288E-02  0.45188E-02  0.19077E-02  0.29439E-02  0.33399E-02  0.29300E-02
  0.22050E-02  0.14847E-02  0.72493E-03 -0.80704E-09 -0.43214E-03 -0.47546E-03
 -0.25328E-03  0.95671E-04  0.49881E-03  0.89983E-03  0.12383E-02  0.14877E-02
  0.16749E-02  0.18711E-02  0.22178E-02  0.28470E-02  0.35886E-02  0.39360E-02
  0.35886E-02  0.28470E-02  0.22178E-02  0.18711E-02  0.16749E-02  0.14877E-02
  0.12383E-02  0.89984E-03  0.49881E-03  0.95669E-04 -0.25328E-03 -0.47547E-03
 -0.43214E-03 -0.61147E-08  0.72492E-03  0.14847E-02  0.22050E-02  0.29300E-02
  0.12287E-02  0.17821E-02  0.20874E-02  0.19057E-02  0.13955E-02  0.74265E-03
 -0.15948E-09 -0.72493E-03 -0.12297E-02 -0.13603E-02 -0.10912E-02 -0.53923E-03
  0.74407E-04  0.53921E-03  0.75753E-03  0.75882E-03  0.64853E-03  0.53128E-03
  0.47828E-03  0.53384E-03  0.66425E-03  0.73588E-03  0.66425E-03  0.53385E-03
  0.47828E-03  0.53129E-03  0.64854E-03  0.75882E-03  0.75754E-03  0.53922E-03
  0.74410E-04 -0.53922E-03 -0.10912E-02 -0.13603E-02 -0.12297E-02 -0.72494E-03
 -0.92121E-08  0.74264E-03  0.13955E-02  0.19057E-02  0.60642E-03  0.88129E-03
  0.10976E-02  0.10267E-02  0.63114E-03  0.28086E-08 -0.74265E-03 -0.14847E-02
 -0.21510E-02 -0.25892E-02 -0.25072E-02 -0.17693E-02 -0.71007E-03  0.92144E-04
  0.33098E-03  0.11104E-03 -0.31281E-03 -0.73773E-03 -0.10260E-02 -0.11189E-02
 -0.10801E-02 -0.10441E-02 -0.10801E-02 -0.11189E-02 -0.10260E-02 -0.73773E-03
 -0.31281E-03  0.11104E-03  0.33098E-03  0.92147E-04 -0.71006E-03 -0.17693E-02
 -0.25072E-02 -0.25892E-02 -0.21510E-02 -0.14847E-02 -0.74266E-03 -0.13466E-07
  0.63112E-03  0.10267E-02  0.11436E-04  0.14402E-03  0.29361E-03  0.30337E-03
  0.25225E-08 -0.63113E-03 -0.13955E-02 -0.22050E-02 -0.32288E-02 -0.43401E-02
 -0.47248E-02 -0.37055E-02 -0.18012E-02 -0.30598E-03  0.74638E-04 -0.38227E-03
 -0.11262E-02 -0.18038E-02 -0.21926E-02 -0.22215E-02 -0.20618E-02 -0.19710E-02
 -0.20618E-02 -0.22215E-02 -0.21926E-02 -0.18038E-02 -0.11262E-02 -0.38227E-03
  0.74639E-04 -0.30599E-03 -0.18012E-02 -0.37055E-02 -0.47248E-02 -0.43401E-02
 -0.32288E-02 -0.22050E-02 -0.13955E-02 -0.63115E-03 -0.12026E-07  0.30336E-03
 -0.31438E-03 -0.19042E-03 -0.48173E-04 -0.16960E-08 -0.30337E-03 -0.10267E-02
 -0.19057E-02 -0.29300E-02 -0.45188E-02 -0.64120E-02 -0.70715E-02 -0.53311E-02
 -0.22194E-02  0.19264E-04  0.36963E-03 -0.49651E-03 -0.16320E-02 -0.25434E-02
 -0.29435E-02 -0.27826E-02 -0.23999E-02 -0.22170E-02 -0.23999E-02 -0.27826E-02
 -0.29435E-02 -0.25434E-02 -0.16320E-02 -0.49651E-03  0.36963E-03  0.19257E-04
 -0.22194E-02 -0.53311E-02 -0.70715E-02 -0.64120E-02 -0.45188E-02 -0.29300E-02
 -0.19057E-02 -0.10267E-02 -0.30338E-03 -0.44661E-08  0.27536E-08 -0.15459E-03
 -0.23565E-03 -0.21657E-03 -0.27285E-03 -0.45845E-03 -0.58941E-03 -0.59624E-03
 -0.18460E-03  0.18019E-02  0.61669E-02  0.11114E-01  0.12995E-01  0.10256E-01
  0.51502E-02  0.70909E-03 -0.22088E-02 -0.40631E-02 -0.49027E-02 -0.47340E-02
 -0.41828E-02 -0.39249E-02 -0.41828E-02 -0.47340E-02 -0.49027E-02 -0.40631E-02
 -0.22088E-02  0.70909E-03  0.51502E-02  0.10256E-01  0.12995E-01  0.11114E-01
  0.61669E-02  0.18019E-02 -0.18461E-03 -0.59624E-03 -0.58942E-03 -0.45845E-03
 -0.27286E-03 -0.21658E-03  0.15459E-03  0.29120E-08 -0.80293E-04 -0.76511E-04
 -0.26063E-03 -0.69701E-03 -0.11186E-02 -0.15291E-02 -0.18854E-02 -0.97703E-03
  0.26544E-02  0.78890E-02  0.10971E-01  0.95410E-02  0.51877E-02  0.93392E-03
 -0.20014E-02 -0.38415E-02 -0.46302E-02 -0.44146E-02 -0.38227E-02 -0.35453E-02
 -0.38227E-02 -0.44146E-02 -0.46302E-02 -0.38415E-02 -0.20014E-02  0.93393E-03
  0.51877E-02  0.95410E-02  0.10971E-01  0.78890E-02  0.26544E-02 -0.97703E-03
 -0.18854E-02 -0.15291E-02 -0.11187E-02 -0.69702E-03 -0.26063E-03 -0.76517E-04
  0.23565E-03  0.80299E-04  0.28735E-08 -0.27702E-04 -0.30097E-03 -0.85278E-03
 -0.13792E-02 -0.19740E-02 -0.29089E-02 -0.32588E-02 -0.12728E-02  0.28868E-02
  0.62717E-02  0.63108E-02  0.35920E-02  0.40362E-03 -0.20121E-02 -0.35827E-02
 -0.42598E-02 -0.40838E-02 -0.35810E-02 -0.33419E-02 -0.35810E-02 -0.40838E-02
 -0.42598E-02 -0.35827E-02 -0.20121E-02  0.40363E-03  0.35920E-02  0.63108E-02
  0.62717E-02  0.28869E-02 -0.12728E-02 -0.32588E-02 -0.29089E-02 -0.19740E-02
 -0.13792E-02 -0.85278E-03 -0.30097E-03 -0.27706E-04  0.21658E-03  0.76517E-04
  0.27706E-04  0.29230E-09 -0.25839E-03 -0.76747E-03 -0.12783E-02 -0.18637E-02
 -0.28427E-02 -0.36700E-02 -0.29213E-02 -0.27540E-03  0.24321E-02  0.31678E-02
  0.18968E-02 -0.32649E-04 -0.17132E-02 -0.29514E-02 -0.36130E-02 -0.36600E-02
 -0.34133E-02 -0.32783E-02 -0.34133E-02 -0.36600E-02 -0.36130E-02 -0.29514E-02
 -0.17132E-02 -0.32646E-04  0.18968E-02  0.31678E-02  0.24321E-02 -0.27540E-03
 -0.29213E-02 -0.36700E-02 -0.28427E-02 -0.18637E-02 -0.12782E-02 -0.76747E-03
 -0.25839E-03  0.66406E-09  0.27286E-03  0.26063E-03  0.30097E-03  0.25839E-03
 -0.42062E-08 -0.47053E-03 -0.99689E-03 -0.15311E-02 -0.21748E-02 -0.26532E-02
 -0.22237E-02 -0.68843E-03  0.96795E-03  0.15828E-02  0.10343E-02 -0.30872E-04
 -0.11401E-02 -0.21402E-02 -0.28687E-02 -0.32061E-02 -0.32610E-02 -0.32471E-02
 -0.32610E-02 -0.32061E-02 -0.28687E-02 -0.21402E-02 -0.11401E-02 -0.30873E-04
  0.10343E-02  0.15828E-02  0.96795E-03 -0.68843E-03 -0.22237E-02 -0.26532E-02
 -0.21748E-02 -0.15311E-02 -0.99688E-03 -0.47052E-03  0.58698E-08  0.25839E-03
  0.45845E-03  0.69702E-03  0.85278E-03  0.76747E-03  0.47052E-03 -0.54623E-08
 -0.56943E-03 -0.10750E-02 -0.13908E-02 -0.13977E-02 -0.91686E-03 -0.49898E-05
  0.85019E-03  0.11593E-02  0.88331E-03  0.27024E-03 -0.49534E-03 -0.13057E-02
 -0.20156E-02 -0.24943E-02 -0.27275E-02 -0.27900E-02 -0.27275E-02 -0.24943E-02
 -0.20156E-02 -0.13057E-02 -0.49535E-03  0.27023E-03  0.88330E-03  0.11593E-02
  0.85019E-03 -0.49941E-05 -0.91686E-03 -0.13977E-02 -0.13908E-02 -0.10750E-02
 -0.56942E-03  0.70937E-08  0.47053E-03  0.76748E-03  0.58942E-03  0.11187E-02
  0.13792E-02  0.12782E-02  0.99689E-03  0.56942E-03 -0.32002E-08 -0.47947E-03
 -0.63985E-03 -0.48282E-03 -0.93161E-04  0.44125E-03  0.94287E-03  0.12153E-02
  0.11750E-02  0.83982E-03  0.28818E-03 -0.35222E-03 -0.94589E-03 -0.13874E-02
 -0.16306E-02 -0.17019E-02 -0.16306E-02 -0.13874E-02 -0.94590E-03 -0.35223E-03
  0.28817E-03  0.83980E-03  0.11750E-02  0.12153E-02  0.94287E-03  0.44125E-03
 -0.93161E-04 -0.48282E-03 -0.63985E-03 -0.47946E-03  0.38204E-08  0.56943E-03
  0.99689E-03  0.12783E-02  0.59624E-03  0.15291E-02  0.19740E-02  0.18637E-02
  0.15311E-02  0.10750E-02  0.47946E-03 -0.24690E-08 -0.11715E-03  0.31379E-04
  0.27610E-03  0.62893E-03  0.11038E-02  0.15542E-02  0.17678E-02  0.16249E-02
  0.11800E-02  0.61295E-03  0.11782E-03 -0.16919E-03 -0.24152E-03 -0.23446E-03
 -0.24153E-03 -0.16920E-03  0.11780E-03  0.61293E-03  0.11800E-02  0.16249E-02
  0.17677E-02  0.15542E-02  0.11038E-02  0.62894E-03  0.27610E-03  0.31385E-04
 -0.11714E-03  0.18413E-08  0.47947E-03  0.10750E-02  0.15311E-02  0.18637E-02
  0.18461E-03  0.18854E-02  0.29089E-02  0.28427E-02  0.21748E-02  0.13908E-02
  0.63985E-03  0.11714E-03 -0.38197E-08  0.16105E-03  0.42009E-03  0.82052E-03
  0.14083E-02  0.20088E-02  0.23529E-02  0.22845E-02  0.18463E-02  0.12545E-02
  0.80915E-03  0.72916E-03  0.93633E-03  0.10767E-02  0.93632E-03  0.72915E-03
  0.80914E-03  0.12545E-02  0.18463E-02  0.22845E-02  0.23528E-02  0.20088E-02
  0.14083E-02  0.82052E-03  0.42009E-03  0.16105E-03  0.26715E-08  0.11715E-03
  0.63985E-03  0.13908E-02  0.21748E-02  0.28427E-02 -0.18019E-02  0.97703E-03
  0.32588E-02  0.36700E-02  0.26532E-02  0.13977E-02  0.48282E-03 -0.31386E-04
 -0.16105E-03 -0.46397E-08  0.35347E-03  0.90595E-03  0.16009E-02  0.22204E-02
  0.25418E-02  0.24599E-02  0.19997E-02  0.13325E-02  0.75090E-03  0.50486E-03
  0.56846E-03  0.65043E-03  0.56845E-03  0.50485E-03  0.75089E-03  0.13324E-02
  0.19997E-02  0.24599E-02  0.25418E-02  0.22204E-02  0.16009E-02  0.90596E-03
  0.35348E-03  0.42188E-08 -0.16105E-03 -0.31381E-04  0.48282E-03  0.13977E-02
  0.26532E-02  0.36700E-02 -0.61669E-02 -0.26544E-02  0.12728E-02  0.29213E-02
  0.22237E-02  0.91686E-03  0.93160E-04 -0.27610E-03 -0.42010E-03 -0.35348E-03
 -0.31434E-08  0.63782E-03  0.13754E-02  0.19524E-02  0.22183E-02  0.21266E-02
  0.16521E-02  0.78141E-03 -0.45698E-03 -0.18891E-02 -0.30975E-02 -0.35774E-02
 -0.30975E-02 -0.18891E-02 -0.45699E-03  0.78139E-03  0.16521E-02  0.21266E-02
  0.22183E-02  0.19524E-02  0.13754E-02  0.63783E-03  0.41718E-08 -0.35347E-03
 -0.42009E-03 -0.27610E-03  0.93159E-04  0.91686E-03  0.22237E-02  0.29213E-02
 -0.11114E-01 -0.78890E-02 -0.28869E-02  0.27539E-03  0.68843E-03  0.49942E-05
 -0.44125E-03 -0.62894E-03 -0.82052E-03 -0.90596E-03 -0.63783E-03 -0.37851E-09
  0.74672E-03  0.13266E-02  0.16216E-02  0.15696E-02  0.10463E-02 -0.21064E-03
 -0.25751E-02 -0.59992E-02 -0.93330E-02 -0.10750E-01 -0.93330E-02 -0.59992E-02
 -0.25751E-02 -0.21065E-03  0.10463E-02  0.15696E-02  0.16216E-02  0.13266E-02
  0.74672E-03  0.24263E-08 -0.63782E-03 -0.90595E-03 -0.82052E-03 -0.62894E-03
 -0.44125E-03  0.49893E-05  0.68843E-03  0.27540E-03 -0.12995E-01 -0.10971E-01
 -0.62717E-02 -0.24321E-02 -0.96795E-03 -0.85019E-03 -0.94287E-03 -0.11038E-02
 -0.14083E-02 -0.16009E-02 -0.13754E-02 -0.74672E-03  0.10043E-08  0.62993E-03
  0.10309E-02  0.10452E-02  0.43620E-03 -0.11808E-02 -0.43918E-02 -0.92293E-02
 -0.14057E-01 -0.16134E-01 -0.14057E-01 -0.92293E-02 -0.43918E-02 -0.11807E-02
  0.43621E-03  0.10452E-02  0.10309E-02  0.62993E-03  0.10112E-08 -0.74672E-03
 -0.13754E-02 -0.16009E-02 -0.14083E-02 -0.11038E-02 -0.94288E-03 -0.85019E-03
 -0.96795E-03 -0.24321E-02 -0.10256E-01 -0.95410E-02 -0.63108E-02 -0.31678E-02
 -0.15828E-02 -0.11593E-02 -0.12153E-02 -0.15542E-02 -0.20088E-02 -0.22204E-02
 -0.19524E-02 -0.13266E-02 -0.62993E-03 -0.17089E-08  0.48331E-03  0.56039E-03
 -0.83378E-04 -0.17476E-02 -0.48698E-02 -0.94577E-02 -0.14013E-01 -0.15972E-01
 -0.14013E-01 -0.94576E-02 -0.48698E-02 -0.17476E-02 -0.83360E-04  0.56041E-03
  0.48332E-03  0.29885E-08 -0.62993E-03 -0.13266E-02 -0.19524E-02 -0.22204E-02
 -0.20088E-02 -0.15542E-02 -0.12153E-02 -0.11593E-02 -0.15828E-02 -0.31678E-02
 -0.51502E-02 -0.51877E-02 -0.35920E-02 -0.18968E-02 -0.10343E-02 -0.88330E-03
 -0.11750E-02 -0.17677E-02 -0.23528E-02 -0.25418E-02 -0.22183E-02 -0.16216E-02
 -0.10309E-02 -0.48332E-03 -0.87435E-08  0.12185E-03 -0.44956E-03 -0.18391E-02
 -0.41471E-02 -0.72741E-02 -0.10269E-01 -0.11541E-01 -0.10269E-01 -0.72740E-02
 -0.41471E-02 -0.18391E-02 -0.44953E-03  0.12188E-03  0.94511E-08 -0.48331E-03
 -0.10309E-02 -0.16216E-02 -0.22183E-02 -0.25418E-02 -0.23529E-02 -0.17678E-02
 -0.11750E-02 -0.88331E-03 -0.10343E-02 -0.18968E-02 -0.70909E-03 -0.93392E-03
 -0.40363E-03  0.32647E-04  0.30874E-04 -0.27023E-03 -0.83980E-03 -0.16249E-02
 -0.22845E-02 -0.24599E-02 -0.21266E-02 -0.15696E-02 -0.10452E-02 -0.56041E-03