       #
       # Generated by the Wannier90 code http://www.wannier.org
       # On 23Sep2015 at 16:17:37 
       #
CRYSTAL
PRIMVEC
   3.8425000   0.0000000   0.0000000
   0.0000000   3.8425000   0.0000000
   0.0000000   0.0000000   3.8425000
CONVVEC
   3.8425000   0.0000000   0.0000000
   0.0000000   3.8425000   0.0000000
   0.0000000   0.0000000   3.8425000
PRIMCOORD
     5  1
V       0.0000000   0.0000000   0.0000000
Sr      1.9212500   1.9212500   1.9212500
O       1.9212500   0.0000000   0.0000000
O       0.0000000   1.9212500   0.0000000
O       0.0000000   0.0000000   1.9212500


BEGIN_BLOCK_DATAGRID_3D
3D_field
BEGIN_DATAGRID_3D_UNKNOWN
    40    40    40
   -4.034625   -4.034625   -4.034625
   7.4928749   0.0000000   0.0000000
   0.0000000   7.4928749   0.0000000
   0.0000000   0.0000000   7.4928749
  0.11713E-06 -0.10116E-03 -0.17156E-03 -0.14677E-03  0.61589E-04  0.43242E-03
  0.82375E-03  0.12596E-02  0.17932E-02  0.18908E-02  0.68899E-03 -0.16158E-02
 -0.33869E-02 -0.32935E-02 -0.17811E-02 -0.13928E-03  0.10472E-02  0.17932E-02
  0.20057E-02  0.16940E-02  0.12490E-02  0.10606E-02  0.12490E-02  0.16940E-02
  0.20057E-02  0.17932E-02  0.10472E-02 -0.13928E-03 -0.17811E-02 -0.32935E-02
 -0.33869E-02 -0.16158E-02  0.68899E-03  0.18908E-02  0.17932E-02  0.12596E-02
  0.82375E-03  0.43242E-03  0.61587E-04 -0.14678E-03 -0.10117E-03  0.19779E-03
  0.39730E-03  0.40557E-03  0.29874E-03  0.11664E-03 -0.21551E-03 -0.82258E-03
 -0.22023E-02 -0.52258E-02 -0.97645E-02 -0.13513E-01 -0.13623E-01 -0.98230E-02
 -0.47312E-02 -0.83403E-03  0.15219E-02  0.29923E-02  0.37664E-02  0.38573E-02
  0.36419E-02  0.35268E-02  0.36419E-02  0.38573E-02  0.37664E-02  0.29923E-02
  0.15219E-02 -0.83403E-03 -0.47312E-02 -0.98230E-02 -0.13623E-01 -0.13513E-01
 -0.97645E-02 -0.52258E-02 -0.22023E-02 -0.82258E-03 -0.21552E-03  0.11664E-03
  0.29874E-03  0.40557E-03 -0.17156E-03  0.39730E-03  0.72897E-03  0.65469E-03
  0.27048E-03 -0.33108E-03 -0.11848E-02 -0.26148E-02 -0.55950E-02 -0.11037E-01
 -0.17704E-01 -0.21744E-01 -0.19963E-01 -0.13327E-01 -0.58679E-02 -0.49499E-03
  0.27270E-02  0.47051E-02  0.57037E-02  0.58118E-02  0.55284E-02  0.53747E-02
  0.55284E-02  0.58118E-02  0.57037E-02  0.47051E-02  0.27270E-02 -0.49499E-03
 -0.58679E-02 -0.13327E-01 -0.19963E-01 -0.21744E-01 -0.17704E-01 -0.11037E-01
 -0.55950E-02 -0.26148E-02 -0.11848E-02 -0.33109E-03  0.27048E-03  0.65469E-03
 -0.14677E-03  0.40557E-03  0.65469E-03  0.48795E-03  0.19977E-04 -0.70918E-03
 -0.17713E-02 -0.34952E-02 -0.67535E-02 -0.12116E-01 -0.17997E-01 -0.20757E-01
 -0.17994E-01 -0.11168E-01 -0.39547E-02  0.13243E-02  0.46378E-02  0.65793E-02
  0.73466E-02  0.72043E-02  0.67646E-02  0.65598E-02  0.67646E-02  0.72043E-02
  0.73466E-02  0.65794E-02  0.46378E-02  0.13243E-02 -0.39547E-02 -0.11168E-01
 -0.17994E-01 -0.20757E-01 -0.17997E-01 -0.12116E-01 -0.67535E-02 -0.34952E-02
 -0.17713E-02 -0.70918E-03  0.19971E-04  0.48795E-03  0.61587E-04  0.29874E-03
  0.27048E-03  0.19976E-04 -0.36605E-03 -0.10049E-02 -0.20535E-02 -0.36285E-02
 -0.60163E-02 -0.93263E-02 -0.12496E-01 -0.13398E-01 -0.10783E-01 -0.56979E-02
 -0.37117E-03  0.37907E-02  0.66031E-02  0.82572E-02  0.89164E-02  0.88985E-02
  0.86608E-02  0.85447E-02  0.86608E-02  0.88985E-02  0.89164E-02  0.82573E-02
  0.66031E-02  0.37907E-02 -0.37117E-03 -0.56979E-02 -0.10783E-01 -0.13398E-01
 -0.12496E-01 -0.93263E-02 -0.60163E-02 -0.36285E-02 -0.20535E-02 -0.10049E-02
 -0.36606E-03  0.19972E-04  0.43242E-03  0.11664E-03 -0.33108E-03 -0.70918E-03
 -0.10049E-02 -0.14516E-02 -0.22393E-02 -0.32995E-02 -0.44479E-02 -0.55608E-02
 -0.63127E-02 -0.59542E-02 -0.39151E-02 -0.57631E-03  0.30154E-02  0.60807E-02
  0.84186E-02  0.10069E-01  0.11089E-01  0.11583E-01  0.11740E-01  0.11762E-01
  0.11740E-01  0.11583E-01  0.11089E-01  0.10069E-01  0.84186E-02  0.60807E-02
  0.30154E-02 -0.57631E-03 -0.39151E-02 -0.59542E-02 -0.63127E-02 -0.55608E-02
 -0.44479E-02 -0.32995E-02 -0.22393E-02 -0.14516E-02 -0.10049E-02 -0.70918E-03
  0.82375E-03 -0.21552E-03 -0.11848E-02 -0.17713E-02 -0.20535E-02 -0.22393E-02
 -0.24316E-02 -0.25888E-02 -0.25758E-02 -0.23512E-02 -0.19338E-02 -0.10602E-02
  0.66863E-03  0.31358E-02  0.57182E-02  0.79947E-02  0.99395E-02  0.11523E-01
  0.12637E-01  0.13330E-01  0.13738E-01  0.13884E-01  0.13738E-01  0.13330E-01
  0.12637E-01  0.11523E-01  0.99395E-02  0.79947E-02  0.57182E-02  0.31358E-02
  0.66862E-03 -0.10602E-02 -0.19338E-02 -0.23512E-02 -0.25758E-02 -0.25888E-02
 -0.24316E-02 -0.22393E-02 -0.20535E-02 -0.17713E-02  0.12596E-02 -0.82258E-03
 -0.26148E-02 -0.34952E-02 -0.36285E-02 -0.32995E-02 -0.25888E-02 -0.16428E-02
 -0.68428E-03  0.18338E-03  0.10584E-02  0.22636E-02  0.40376E-02  0.60895E-02
  0.78946E-02  0.93203E-02  0.10424E-01  0.11076E-01  0.11447E-01  0.12179E-01
  0.13343E-01  0.13956E-01  0.13343E-01  0.12179E-01  0.11447E-01  0.11076E-01
  0.10424E-01  0.93203E-02  0.78946E-02  0.60895E-02  0.40376E-02  0.22636E-02
  0.10584E-02  0.18337E-03 -0.68429E-03 -0.16428E-02 -0.25888E-02 -0.32995E-02
 -0.36285E-02 -0.34952E-02  0.17932E-02 -0.22023E-02 -0.55950E-02 -0.67535E-02
 -0.60163E-02 -0.44479E-02 -0.25758E-02 -0.68428E-03  0.89595E-03  0.21557E-02
  0.34612E-02  0.51094E-02  0.69513E-02  0.84855E-02  0.93967E-02  0.97190E-02
  0.93256E-02  0.81194E-02  0.71081E-02  0.78836E-02  0.10182E-01  0.11477E-01
  0.10182E-01  0.78836E-02  0.71081E-02  0.81194E-02  0.93256E-02  0.97190E-02
  0.93967E-02  0.84855E-02  0.69513E-02  0.51094E-02  0.34612E-02  0.21557E-02
  0.89595E-03 -0.68428E-03 -0.25758E-02 -0.44479E-02 -0.60163E-02 -0.67535E-02
  0.18908E-02 -0.52258E-02 -0.11037E-01 -0.12116E-01 -0.93263E-02 -0.55608E-02
 -0.23512E-02  0.18337E-03  0.21557E-02  0.38498E-02  0.56950E-02  0.76927E-02
  0.93396E-02  0.10211E-01  0.10264E-01  0.93989E-02  0.71024E-02  0.32638E-02
 -0.72042E-03 -0.28291E-02 -0.27852E-02 -0.23727E-02 -0.27852E-02 -0.28291E-02
 -0.72041E-03  0.32638E-02  0.71024E-02  0.93989E-02  0.10264E-01  0.10211E-01
  0.93396E-02  0.76927E-02  0.56950E-02  0.38498E-02  0.21557E-02  0.18337E-03
 -0.23512E-02 -0.55608E-02 -0.93263E-02 -0.12116E-01  0.68899E-03 -0.97645E-02
 -0.17704E-01 -0.17997E-01 -0.12496E-01 -0.63127E-02 -0.19338E-02  0.10584E-02
  0.34612E-02  0.56950E-02  0.79524E-02  0.99624E-02  0.11244E-01  0.11675E-01
  0.11231E-01  0.93292E-02  0.49589E-02 -0.25432E-02 -0.12918E-01 -0.24561E-01
 -0.34214E-01 -0.38031E-01 -0.34214E-01 -0.24561E-01 -0.12918E-01 -0.25432E-02
  0.49589E-02  0.93292E-02  0.11231E-01  0.11675E-01  0.11244E-01  0.99624E-02
  0.79524E-02  0.56950E-02  0.34612E-02  0.10584E-02 -0.19338E-02 -0.63127E-02
 -0.12496E-01 -0.17997E-01 -0.16158E-02 -0.13513E-01 -0.21744E-01 -0.20757E-01
 -0.13398E-01 -0.59542E-02 -0.10602E-02  0.22636E-02  0.51094E-02  0.76927E-02
  0.99624E-02  0.11737E-01  0.12886E-01  0.13456E-01  0.13046E-01  0.10463E-01
  0.42798E-02 -0.71147E-02 -0.25599E-01 -0.50406E-01 -0.73828E-01 -0.83694E-01
 -0.73828E-01 -0.50406E-01 -0.25599E-01 -0.71147E-02  0.42798E-02  0.10463E-01
  0.13046E-01  0.13456E-01  0.12886E-01  0.11737E-01  0.99624E-02  0.76927E-02
  0.51094E-02  0.22636E-02 -0.10602E-02 -0.59542E-02 -0.13398E-01 -0.20757E-01
 -0.33869E-02 -0.13623E-01 -0.19963E-01 -0.17994E-01 -0.10783E-01 -0.39151E-02
  0.66862E-03  0.40376E-02  0.69513E-02  0.93396E-02  0.11244E-01  0.12886E-01
  0.14395E-01  0.15601E-01  0.15612E-01  0.12931E-01  0.60969E-02 -0.69481E-02
 -0.29443E-01 -0.61371E-01 -0.92584E-01 -0.10594E+00 -0.92584E-01 -0.61371E-01
 -0.29443E-01 -0.69481E-02  0.60969E-02  0.12931E-01  0.15612E-01  0.15601E-01
  0.14395E-01  0.12886E-01  0.11244E-01  0.93396E-02  0.69513E-02  0.40376E-02
  0.66863E-03 -0.39151E-02 -0.10783E-01 -0.17994E-01 -0.32935E-02 -0.98230E-02
 -0.13327E-01 -0.11168E-01 -0.56979E-02 -0.57631E-03  0.31358E-02  0.60895E-02
  0.84855E-02  0.10211E-01  0.11675E-01  0.13456E-01  0.15601E-01  0.17543E-01
  0.18236E-01  0.16377E-01  0.10780E-01 -0.20594E-03 -0.19388E-01 -0.47075E-01
 -0.74569E-01 -0.86436E-01 -0.74569E-01 -0.47075E-01 -0.19388E-01 -0.20594E-03
  0.10780E-01  0.16377E-01  0.18236E-01  0.17543E-01  0.15601E-01  0.13456E-01
  0.11675E-01  0.10211E-01  0.84855E-02  0.60895E-02  0.31358E-02 -0.57631E-03
 -0.56979E-02 -0.11168E-01 -0.17811E-02 -0.47312E-02 -0.58679E-02 -0.39547E-02
 -0.37117E-03  0.30154E-02  0.57182E-02  0.78946E-02  0.93967E-02  0.10264E-01
  0.11231E-01  0.13046E-01  0.15612E-01  0.18236E-01  0.20184E-01  0.20506E-01
  0.17984E-01  0.11437E-01 -0.46382E-03 -0.17702E-01 -0.34980E-01 -0.42500E-01
 -0.34980E-01 -0.17702E-01 -0.46382E-03  0.11437E-01  0.17984E-01  0.20506E-01
  0.20184E-01  0.18236E-01  0.15612E-01  0.13046E-01  0.11231E-01  0.10264E-01
  0.93967E-02  0.78946E-02  0.57182E-02  0.30154E-02 -0.37117E-03 -0.39547E-02
 -0.13928E-03 -0.83403E-03 -0.49499E-03  0.13243E-02  0.37907E-02  0.60807E-02
  0.79947E-02  0.93203E-02  0.97190E-02  0.93989E-02  0.93292E-02  0.10463E-01
  0.12931E-01  0.16377E-01  0.20506E-01  0.24407E-01  0.26232E-01  0.24540E-01
  0.19067E-01  0.10554E-01  0.18920E-02 -0.19112E-02  0.18920E-02  0.10554E-01
  0.19067E-01  0.24540E-01  0.26232E-01  0.24407E-01  0.20506E-01  0.16377E-01
  0.12931E-01  0.10463E-01  0.93292E-02  0.93989E-02  0.97190E-02  0.93203E-02
  0.79947E-02  0.60807E-02  0.37907E-02  0.13243E-02  0.10472E-02  0.15219E-02
  0.27270E-02  0.46378E-02  0.66031E-02  0.84186E-02  0.99395E-02  0.10424E-01
  0.93256E-02  0.71024E-02  0.49589E-02  0.42798E-02  0.60969E-02  0.10780E-01
  0.17984E-01  0.26232E-01  0.32936E-01  0.35990E-01  0.35108E-01  0.31442E-01
  0.27202E-01  0.25291E-01  0.27202E-01  0.31442E-01  0.35108E-01  0.35990E-01
  0.32936E-01  0.26232E-01  0.17984E-01  0.10780E-01  0.60969E-02  0.42798E-02
  0.49589E-02  0.71024E-02  0.93256E-02  0.10424E-01  0.99395E-02  0.84186E-02
  0.66031E-02  0.46378E-02  0.17932E-02  0.29923E-02  0.47051E-02  0.65793E-02
  0.82572E-02  0.10069E-01  0.11523E-01  0.11076E-01  0.81194E-02  0.32638E-02
 -0.25432E-02 -0.71147E-02 -0.69481E-02 -0.20594E-03  0.11437E-01  0.24540E-01
  0.35990E-01  0.43583E-01  0.46435E-01  0.45465E-01  0.43080E-01  0.41901E-01
  0.43080E-01  0.45465E-01  0.46435E-01  0.43583E-01  0.35990E-01  0.24540E-01
  0.11437E-01 -0.20594E-03 -0.69481E-02 -0.71147E-02 -0.25432E-02  0.32638E-02
  0.81194E-02  0.11076E-01  0.11523E-01  0.10069E-01  0.82573E-02  0.65794E-02
  0.20057E-02  0.37664E-02  0.57037E-02  0.73466E-02  0.89164E-02  0.11089E-01
  0.12637E-01  0.11447E-01  0.71081E-02 -0.72041E-03 -0.12918E-01 -0.25599E-01
 -0.29443E-01 -0.19388E-01 -0.46382E-03  0.19067E-01  0.35108E-01  0.46435E-01
  0.51949E-01  0.52142E-01  0.50040E-01  0.48914E-01  0.50040E-01  0.52142E-01
  0.51949E-01  0.46435E-01  0.35108E-01  0.19067E-01 -0.46382E-03 -0.19388E-01
 -0.29443E-01 -0.25599E-01 -0.12918E-01 -0.72041E-03  0.71081E-02  0.11447E-01
  0.12637E-01  0.11089E-01  0.89164E-02  0.73466E-02  0.16940E-02  0.38573E-02
  0.58118E-02  0.72043E-02  0.88985E-02  0.11583E-01  0.13330E-01  0.12179E-01
  0.78836E-02 -0.28291E-02 -0.24561E-01 -0.50406E-01 -0.61371E-01 -0.47075E-01
 -0.17702E-01  0.10554E-01  0.31442E-01  0.45465E-01  0.52142E-01  0.51848E-01
  0.48612E-01  0.46962E-01  0.48612E-01  0.51848E-01  0.52142E-01  0.45465E-01
  0.31442E-01  0.10554E-01 -0.17702E-01 -0.47075E-01 -0.61371E-01 -0.50406E-01
 -0.24561E-01 -0.28291E-02  0.78836E-02  0.12179E-01  0.13330E-01  0.11583E-01
  0.88985E-02  0.72043E-02  0.12490E-02  0.36419E-02  0.55284E-02  0.67646E-02
  0.86608E-02  0.11740E-01  0.13738E-01  0.13343E-01  0.10182E-01 -0.27852E-02
 -0.34214E-01 -0.73828E-01 -0.92584E-01 -0.74569E-01 -0.34980E-01  0.18920E-02
  0.27202E-01  0.43080E-01  0.50040E-01  0.48612E-01  0.43813E-01  0.41470E-01
  0.43813E-01  0.48612E-01  0.50040E-01  0.43080E-01  0.27202E-01  0.18920E-02
 -0.34980E-01 -0.74569E-01 -0.92584E-01 -0.73828E-01 -0.34214E-01 -0.27852E-02
  0.10182E-01  0.13343E-01  0.13738E-01  0.11740E-01  0.86608E-02  0.67646E-02
  0.10606E-02  0.35268E-02  0.53747E-02  0.65598E-02  0.85447E-02  0.11762E-01
  0.13884E-01  0.13956E-01  0.11477E-01 -0.23727E-02 -0.38031E-01 -0.83694E-01
 -0.10594E+00 -0.86436E-01 -0.42500E-01 -0.19112E-02  0.25291E-01  0.41901E-01
  0.48914E-01  0.46962E-01  0.41470E-01  0.38820E-01  0.41470E-01  0.46962E-01
  0.48914E-01  0.41901E-01  0.25291E-01 -0.19112E-02 -0.42500E-01 -0.86436E-01
 -0.10594E+00 -0.83694E-01 -0.38031E-01 -0.23727E-02  0.11477E-01  0.13956E-01
  0.13884E-01  0.11762E-01  0.85447E-02  0.65598E-02  0.12490E-02  0.36419E-02
  0.55284E-02  0.67646E-02  0.86608E-02  0.11740E-01  0.13738E-01  0.13343E-01
  0.10182E-01 -0.27852E-02 -0.34214E-01 -0.73828E-01 -0.92584E-01 -0.74569E-01
 -0.34980E-01  0.18920E-02  0.27202E-01  0.43080E-01  0.50040E-01  0.48612E-01
  0.43813E-01  0.41470E-01  0.43813E-01  0.48612E-01  0.50040E-01  0.43080E-01
  0.27202E-01  0.18920E-02 -0.34980E-01 -0.74569E-01 -0.92584E-01 -0.73828E-01
 -0.34214E-01 -0.27852E-02  0.10182E-01  0.13343E-01  0.13738E-01  0.11740E-01
  0.86608E-02  0.67646E-02  0.16940E-02  0.38573E-02  0.58118E-02  0.72043E-02
  0.88985E-02  0.11583E-01  0.13330E-01  0.12179E-01  0.78836E-02 -0.28291E-02
 -0.24561E-01 -0.50406E-01 -0.61371E-01 -0.47075E-01 -0.17702E-01  0.10554E-01
  0.31442E-01  0.45465E-01  0.52142E-01  0.51848E-01  0.48612E-01  0.46962E-01
  0.48612E-01  0.51848E-01  0.52142E-01  0.45465E-01  0.31442E-01  0.10554E-01
 -0.17702E-01 -0.47075E-01 -0.61371E-01 -0.50406E-01 -0.24561E-01 -0.28291E-02
  0.78836E-02  0.12179E-01  0.13330E-01  0.11583E-01  0.88985E-02  0.72043E-02
  0.20057E-02  0.37664E-02  0.57037E-02  0.73466E-02  0.89164E-02  0.11089E-01
  0.12637E-01  0.11447E-01  0.71081E-02 -0.72042E-03 -0.12918E-01 -0.25599E-01
 -0.29443E-01 -0.19388E-01 -0.46382E-03  0.19067E-01  0.35108E-01  0.46435E-01
  0.51949E-01  0.52142E-01  0.50040E-01  0.48914E-01  0.50040E-01  0.52142E-01
  0.51949E-01  0.46435E-01  0.35108E-01  0.19067E-01 -0.46382E-03 -0.19388E-01
 -0.29443E-01 -0.25599E-01 -0.12918E-01 -0.72041E-03  0.71081E-02  0.11447E-01
  0.12637E-01  0.11089E-01  0.89164E-02  0.73466E-02  0.17932E-02  0.29922E-02
  0.47051E-02  0.65793E-02  0.82572E-02  0.10069E-01  0.11523E-01  0.11076E-01
  0.81194E-02  0.32638E-02 -0.25432E-02 -0.71147E-02 -0.69481E-02 -0.20594E-03
  0.11437E-01  0.24540E-01  0.35990E-01  0.43583E-01  0.46435E-01  0.45465E-01
  0.43080E-01  0.41901E-01  0.43080E-01  0.45465E-01  0.46435E-01  0.43583E-01
  0.35990E-01  0.24540E-01  0.11437E-01 -0.20594E-03 -0.69481E-02 -0.71147E-02
 -0.25432E-02  0.32638E-02  0.81193E-02  0.11076E-01  0.11523E-01  0.10069E-01
  0.82572E-02  0.65793E-02  0.10472E-02  0.15219E-02  0.27270E-02  0.46378E-02
  0.66031E-02  0.84186E-02  0.99395E-02  0.10424E-01  0.93256E-02  0.71024E-02
  0.49589E-02  0.42798E-02  0.60969E-02  0.10780E-01  0.17984E-01  0.26232E-01
  0.32936E-01  0.35990E-01  0.35108E-01  0.31442E-01  0.27202E-01  0.25291E-01
  0.27202E-01  0.31442E-01  0.35108E-01  0.35990E-01  0.32936E-01  0.26232E-01
  0.17984E-01  0.10780E-01  0.60969E-02  0.42798E-02  0.49589E-02  0.71024E-02
  0.93256E-02  0.10424E-01  0.99395E-02  0.84186E-02  0.66031E-02  0.46378E-02
 -0.13928E-03 -0.83403E-03 -0.49499E-03  0.13243E-02  0.37907E-02  0.60807E-02
  0.79947E-02  0.93203E-02  0.97190E-02  0.93989E-02  0.93292E-02  0.10463E-01
  0.12931E-01  0.16377E-01  0.20506E-01  0.24407E-01  0.26232E-01  0.24540E-01
  0.19067E-01  0.10554E-01  0.18920E-02 -0.19112E-02  0.18920E-02  0.10554E-01
  0.19067E-01  0.24540E-01  0.26232E-01  0.24407E-01  0.20506E-01  0.16377E-01
  0.12931E-01  0.10463E-01  0.93292E-02  0.93989E-02  0.97190E-02  0.93203E-02
  0.79947E-02  0.60807E-02  0.37907E-02  0.13243E-02 -0.17811E-02 -0.47312E-02
 -0.58679E-02 -0.39547E-02 -0.37117E-03  0.30154E-02  0.57182E-02  0.78946E-02
  0.93967E-02  0.10264E-01  0.11231E-01  0.13046E-01  0.15612E-01  0.18236E-01
  0.20184E-01  0.20506E-01  0.17984E-01  0.11437E-01 -0.46382E-03 -0.17702E-01
 -0.34980E-01 -0.42500E-01 -0.34980E-01 -0.17702E-01 -0.46382E-03  0.11437E-01
  0.17984E-01  0.20506E-01  0.20184E-01  0.18236E-01  0.15612E-01  0.13046E-01
  0.11231E-01  0.10264E-01  0.93967E-02  0.78946E-02  0.57182E-02  0.30154E-02
 -0.37117E-03 -0.39547E-02 -0.32935E-02 -0.98230E-02 -0.13327E-01 -0.11168E-01
 -0.56979E-02 -0.57631E-03  0.31358E-02  0.60895E-02  0.84855E-02  0.10211E-01
  0.11675E-01  0.13456E-01  0.15601E-01  0.17543E-01  0.18236E-01  0.16377E-01
  0.10780E-01 -0.20594E-03 -0.19388E-01 -0.47075E-01 -0.74569E-01 -0.86436E-01
 -0.74569E-01 -0.47075E-01 -0.19388E-01 -0.20594E-03  0.10780E-01  0.16377E-01
  0.18236E-01  0.17543E-01  0.15601E-01  0.13456E-01  0.11675E-01  0.10211E-01
  0.84855E-02  0.60895E-02  0.31358E-02 -0.57631E-03 -0.56979E-02 -0.11168E-01
 -0.33869E-02 -0.13623E-01 -0.19963E-01 -0.17994E-01 -0.10783E-01 -0.39151E-02
  0.66863E-03  0.40376E-02  0.69513E-02  0.93396E-02  0.11244E-01  0.12886E-01
  0.14395E-01  0.15601E-01  0.15612E-01  0.12931E-01  0.60969E-02 -0.69481E-02
 -0.29443E-01 -0.61371E-01 -0.92584E-01 -0.10594E+00 -0.92584E-01 -0.61371E-01
 -0.29443E-01 -0.69481E-02  0.60969E-02  0.12931E-01  0.15612E-01  0.15601E-01
  0.14395E-01  0.12886E-01  0.11244E-01  0.93396E-02  0.69513E-02  0.40376E-02
  0.66862E-03 -0.39151E-02 -0.10783E-01 -0.17994E-01 -0.16158E-02 -0.13513E-01
 -0.21744E-01 -0.20757E-01 -0.13398E-01 -0.59542E-02 -0.10602E-02  0.22636E-02
  0.51094E-02  0.76927E-02  0.99624E-02  0.11737E-01  0.12886E-01  0.13456E-01
  0.13046E-01  0.10463E-01  0.42798E-02 -0.71147E-02 -0.25599E-01 -0.50406E-01
 -0.73828E-01 -0.83694E-01 -0.73828E-01 -0.50406E-01 -0.25599E-01 -0.71147E-02
  0.42798E-02  0.10463E-01  0.13046E-01  0.13456E-01  0.12886E-01  0.11737E-01
  0.99624E-02  0.76927E-02  0.51094E-02  0.22636E-02 -0.10602E-02 -0.59542E-02
 -0.13398E-01 -0.20757E-01  0.68899E-03 -0.97645E-02 -0.17704E-01 -0.17997E-01
 -0.12496E-01 -0.63127E-02 -0.19338E-02  0.10584E-02  0.34612E-02  0.56950E-02
  0.79524E-02  0.99624E-02  0.11244E-01  0.11675E-01  0.11231E-01  0.93292E-02
  0.49589E-02 -0.25432E-02 -0.12918E-01 -0.24561E-01 -0.34214E-01 -0.38031E-01
 -0.34214E-01 -0.24561E-01 -0.12918E-01 -0.25432E-02  0.49589E-02  0.93292E-02
  0.11231E-01  0.11675E-01  0.11244E-01  0.99624E-02  0.79524E-02  0.56950E-02
  0.34612E-02  0.10584E-02 -0.19338E-02 -0.63127E-02 -0.12496E-01 -0.17997E-01
  0.18908E-02 -0.52258E-02 -0.11037E-01 -0.12116E-01 -0.93263E-02 -0.55608E-02
 -0.23512E-02  0.18337E-03  0.21557E-02  0.38498E-02  0.56950E-02  0.76927E-02
  0.93396E-02  0.10211E-01  0.10264E-01  0.93989E-02  0.71024E-02  0.32638E-02
 -0.72041E-03 -0.28291E-02 -0.27852E-02 -0.23727E-02 -0.27852E-02 -0.28291E-02
 -0.72042E-03  0.32638E-02  0.71024E-02  0.93989E-02  0.10264E-01  0.10211E-01
  0.93396E-02  0.76927E-02  0.56950E-02  0.38498E-02  0.21557E-02  0.18338E-03
 -0.23512E-02 -0.55608E-02 -0.93263E-02 -0.12116E-01  0.17932E-02 -0.22023E-02
 -0.55950E-02 -0.67535E-02 -0.60163E-02 -0.44479E-02 -0.25758E-02 -0.68429E-03
  0.89594E-03  0.21557E-02  0.34612E-02  0.51094E-02  0.69513E-02  0.84855E-02
  0.93967E-02  0.97190E-02  0.93256E-02  0.81194E-02  0.71081E-02  0.78836E-02
  0.10182E-01  0.11477E-01  0.10182E-01  0.78836E-02  0.71081E-02  0.81194E-02
  0.93256E-02  0.97190E-02  0.93967E-02  0.84855E-02  0.69513E-02  0.51094E-02
  0.34612E-02  0.21557E-02  0.89595E-03 -0.68428E-03 -0.25758E-02 -0.44479E-02
 -0.60163E-02 -0.67535E-02  0.12596E-02 -0.82258E-03 -0.26148E-02 -0.34952E-02
 -0.36285E-02 -0.32995E-02 -0.25888E-02 -0.16428E-02 -0.68429E-03  0.18337E-03
  0.10584E-02  0.22636E-02  0.40376E-02  0.60895E-02  0.78946E-02  0.93203E-02
  0.10424E-01  0.11076E-01  0.11447E-01  0.12179E-01  0.13343E-01  0.13956E-01
  0.13343E-01  0.12179E-01  0.11447E-01  0.11076E-01  0.10424E-01  0.93203E-02
  0.78946E-02  0.60895E-02  0.40376E-02  0.22636E-02  0.10584E-02  0.18338E-03
 -0.68428E-03 -0.16428E-02 -0.25888E-02 -0.32995E-02 -0.36285E-02 -0.34952E-02
  0.82375E-03 -0.21551E-03 -0.11848E-02 -0.17713E-02 -0.20535E-02 -0.22393E-02
 -0.24316E-02 -0.25888E-02 -0.25758E-02 -0.23512E-02 -0.19338E-02 -0.10602E-02
  0.66862E-03  0.31358E-02  0.57182E-02  0.79947E-02  0.99395E-02  0.11523E-01
  0.12637E-01  0.13330E-01  0.13738E-01  0.13884E-01  0.13738E-01  0.13330E-01
  0.12637E-01  0.11523E-01  0.99395E-02  0.79947E-02  0.57182E-02  0.31358E-02
  0.66862E-03 -0.10602E-02 -0.19338E-02 -0.23512E-02 -0.25758E-02 -0.25888E-02
 -0.24316E-02 -0.22393E-02 -0.20535E-02 -0.17713E-02  0.43242E-03  0.11664E-03
 -0.33108E-03 -0.70918E-03 -0.10049E-02 -0.14516E-02 -0.22393E-02 -0.32995E-02
 -0.44479E-02 -0.55608E-02 -0.63127E-02 -0.59542E-02 -0.39151E-02 -0.57631E-03
  0.30154E-02  0.60807E-02  0.84186E-02  0.10069E-01  0.11089E-01  0.11583E-01
  0.11740E-01  0.11762E-01  0.11740E-01  0.11583E-01  0.11089E-01  0.10069E-01
  0.84186E-02  0.60807E-02  0.30154E-02 -0.57631E-03 -0.39151E-02 -0.59542E-02
 -0.63127E-02 -0.55608E-02 -0.44479E-02 -0.32995E-02 -0.22393E-02 -0.14516E-02
 -0.10049E-02 -0.70918E-03  0.61590E-04  0.29874E-03  0.27048E-03  0.19973E-04
 -0.36606E-03 -0.10049E-02 -0.20535E-02 -0.36285E-02 -0.60163E-02 -0.93263E-02
 -0.12496E-01 -0.13398E-01 -0.10783E-01 -0.56979E-02 -0.37117E-03  0.37907E-02
  0.66031E-02  0.82572E-02  0.89164E-02  0.88985E-02  0.86608E-02  0.85447E-02
  0.86608E-02  0.88985E-02  0.89164E-02  0.82572E-02  0.66031E-02  0.37907E-02
 -0.37117E-03 -0.56979E-02 -0.10783E-01 -0.13398E-01 -0.12496E-01 -0.93263E-02
 -0.60163E-02 -0.36285E-02 -0.20535E-02 -0.10049E-02 -0.36605E-03  0.19978E-04
 -0.14677E-03  0.40557E-03  0.65469E-03  0.48795E-03  0.19973E-04 -0.70918E-03
 -0.17713E-02 -0.34952E-02 -0.67535E-02 -0.12116E-01 -0.17997E-01 -0.20757E-01
 -0.17994E-01 -0.11168E-01 -0.39547E-02  0.13243E-02  0.46378E-02  0.65793E-02
  0.73466E-02  0.72043E-02  0.67646E-02  0.65598E-02  0.67646E-02  0.72043E-02
  0.73466E-02  0.65793E-02  0.46378E-02  0.13243E-02 -0.39547E-02 -0.11168E-01
 -0.17994E-01 -0.20757E-01 -0.17997E-01 -0.12116E-01 -0.67535E-02 -0.34952E-02
 -0.17713E-02 -0.70918E-03  0.19978E-04  0.48795E-03  0.22898E-03 -0.70919E-04
 -0.29527E-03 -0.30373E-03  0.68243E-04  0.83855E-03  0.18344E-02  0.32165E-02
  0.54812E-02  0.81983E-02  0.94395E-02  0.77039E-02  0.40285E-02  0.96314E-03
 -0.18943E-03 -0.68951E-05  0.54846E-03  0.96414E-03  0.95629E-03  0.50445E-03
 -0.31388E-04 -0.25640E-03 -0.31383E-04  0.50446E-03  0.95629E-03  0.96414E-03
  0.54846E-03 -0.68945E-05 -0.18943E-03  0.96314E-03  0.40285E-02  0.77039E-02
  0.94395E-02  0.81983E-02  0.54812E-02  0.32165E-02  0.18345E-02  0.83855E-03
  0.68242E-04 -0.30373E-03 -0.70922E-04  0.29517E-04  0.86902E-04  0.96999E-04
  0.22245E-03  0.50241E-03  0.78214E-03  0.10766E-02  0.13640E-02  0.87766E-03
 -0.13306E-02 -0.46101E-02 -0.66289E-02 -0.58736E-02 -0.32791E-02 -0.70890E-03
  0.10676E-02  0.21830E-02  0.26698E-02  0.25545E-02  0.22095E-02  0.20466E-02
  0.22095E-02  0.25545E-02  0.26698E-02  0.21830E-02  0.10676E-02 -0.70890E-03
 -0.32791E-02 -0.58736E-02 -0.66289E-02 -0.46101E-02 -0.13306E-02  0.87766E-03
  0.13640E-02  0.10766E-02  0.78214E-03  0.50241E-03  0.22245E-03  0.96995E-04
 -0.29527E-03  0.86900E-04  0.30146E-03  0.30221E-03  0.23197E-03  0.90720E-04
 -0.28570E-03 -0.11116E-02 -0.29579E-02 -0.66236E-02 -0.11663E-01 -0.15431E-01
 -0.15076E-01 -0.10633E-01 -0.49624E-02 -0.59999E-03  0.20559E-02  0.35756E-02
  0.41684E-02  0.39691E-02  0.34906E-02  0.32674E-02  0.34906E-02  0.39691E-02
  0.41684E-02  0.35756E-02  0.20559E-02 -0.59999E-03 -0.49624E-02 -0.10633E-01
 -0.15076E-01 -0.15431E-01 -0.11663E-01 -0.66236E-02 -0.29579E-02 -0.11117E-02
 -0.28570E-03  0.90718E-04  0.23197E-03  0.30221E-03 -0.30373E-03  0.96997E-04
  0.30221E-03  0.31545E-03  0.17477E-03 -0.24918E-03 -0.10872E-02 -0.25204E-02
 -0.51597E-02 -0.95469E-02 -0.14583E-01 -0.17299E-01 -0.15434E-01 -0.99148E-02
 -0.38148E-02  0.69910E-03  0.34365E-02  0.48743E-02  0.52164E-02  0.47493E-02
  0.40937E-02  0.38099E-02  0.40937E-02  0.47493E-02  0.52164E-02  0.48743E-02
  0.34365E-02  0.69910E-03 -0.38148E-02 -0.99148E-02 -0.15434E-01 -0.17299E-01
 -0.14583E-01 -0.95469E-02 -0.51597E-02 -0.25204E-02 -0.10872E-02 -0.24919E-03
  0.17477E-03  0.31545E-03  0.68244E-04  0.22245E-03  0.23197E-03  0.17477E-03
 -0.46392E-04 -0.64660E-03 -0.16412E-02 -0.29725E-02 -0.49129E-02 -0.77342E-02
 -0.10653E-01 -0.11764E-01 -0.97728E-02 -0.54616E-02 -0.84248E-03  0.27231E-02
  0.50304E-02  0.62668E-02  0.65802E-02  0.62622E-02  0.57920E-02  0.55842E-02
  0.57920E-02  0.62623E-02  0.65802E-02  0.62668E-02  0.50304E-02  0.27231E-02
 -0.84248E-03 -0.54616E-02 -0.97728E-02 -0.11764E-01 -0.10653E-01 -0.77342E-02
 -0.49129E-02 -0.29725E-02 -0.16412E-02 -0.64660E-03 -0.46395E-04  0.17477E-03
  0.83855E-03  0.50241E-03  0.90719E-04 -0.24918E-03 -0.64660E-03 -0.12262E-02
 -0.19042E-02 -0.25785E-02 -0.33297E-02 -0.42844E-02 -0.51697E-02 -0.51550E-02
 -0.35595E-02 -0.69206E-03  0.24174E-02  0.50061E-02  0.69173E-02  0.82008E-02
  0.88629E-02  0.89868E-02  0.88356E-02  0.87350E-02  0.88356E-02  0.89868E-02
  0.88629E-02  0.82008E-02  0.69173E-02  0.50061E-02  0.24174E-02 -0.69206E-03
 -0.35595E-02 -0.51550E-02 -0.51697E-02 -0.42844E-02 -0.33297E-02 -0.25785E-02
 -0.19042E-02 -0.12262E-02 -0.64660E-03 -0.24919E-03  0.18344E-02  0.78214E-03
 -0.28570E-03 -0.10872E-02 -0.16412E-02 -0.19042E-02 -0.18315E-02 -0.16009E-02
 -0.14200E-02 -0.13194E-02 -0.11372E-02 -0.47054E-03  0.10524E-02  0.32246E-02
  0.53979E-02  0.72141E-02  0.87113E-02  0.98537E-02  0.10513E-01  0.10785E-01
  0.10901E-01  0.10946E-01  0.10901E-01  0.10785E-01  0.10513E-01  0.98537E-02
  0.87113E-02  0.72140E-02  0.53979E-02  0.32246E-02  0.10524E-02 -0.47054E-03
 -0.11372E-02 -0.13194E-02 -0.14200E-02 -0.16009E-02 -0.18315E-02 -0.19042E-02
 -0.16412E-02 -0.10872E-02  0.32165E-02  0.10766E-02 -0.11117E-02 -0.25204E-02
 -0.29725E-02 -0.25785E-02 -0.16009E-02 -0.52433E-03  0.31982E-03  0.10279E-02
  0.18889E-02  0.31550E-02  0.48522E-02  0.65953E-02  0.79517E-02  0.89187E-02
  0.95803E-02  0.97866E-02  0.97880E-02  0.10374E-01  0.11600E-01  0.12278E-01
  0.11600E-01  0.10374E-01  0.97880E-02  0.97866E-02  0.95803E-02  0.89187E-02
  0.79517E-02  0.65953E-02  0.48522E-02  0.31550E-02  0.18889E-02  0.10279E-02
  0.31982E-03 -0.52433E-03 -0.16009E-02 -0.25785E-02 -0.29725E-02 -0.25204E-02
  0.54812E-02  0.13640E-02 -0.29579E-02 -0.51597E-02 -0.49129E-02 -0.33297E-02
 -0.14200E-02  0.31982E-03  0.17791E-02  0.31787E-02  0.47850E-02  0.65890E-02
  0.82701E-02  0.94293E-02  0.99628E-02  0.99839E-02  0.92871E-02  0.77762E-02
  0.66956E-02  0.78499E-02  0.10765E-01  0.12366E-01  0.10765E-01  0.78499E-02
  0.66956E-02  0.77762E-02  0.92871E-02  0.99839E-02  0.99628E-02  0.94293E-02
  0.82701E-02  0.65890E-02  0.47850E-02  0.31787E-02  0.17791E-02  0.31982E-03
 -0.14200E-02 -0.33297E-02 -0.49129E-02 -0.51597E-02  0.81983E-02  0.87766E-03
 -0.66236E-02 -0.95469E-02 -0.77342E-02 -0.42844E-02 -0.13194E-02  0.10279E-02
  0.31787E-02  0.53661E-02  0.76166E-02  0.96734E-02  0.11137E-01  0.11828E-01
  0.11801E-01  0.10840E-01  0.82950E-02  0.41717E-02  0.23187E-03 -0.12973E-02
 -0.45747E-03  0.32931E-03 -0.45747E-03 -0.12973E-02  0.23187E-03  0.41717E-02
  0.82950E-02  0.10840E-01  0.11801E-01  0.11828E-01  0.11137E-01  0.96734E-02
  0.76166E-02  0.53661E-02  0.31787E-02  0.10279E-02 -0.13194E-02 -0.42844E-02
 -0.77342E-02 -0.95469E-02  0.94395E-02 -0.13306E-02 -0.11663E-01 -0.14583E-01
 -0.10653E-01 -0.51697E-02 -0.11372E-02  0.18889E-02  0.47850E-02  0.76166E-02
  0.10193E-01  0.12293E-01  0.13721E-01  0.14428E-01  0.14179E-01  0.12152E-01
  0.73345E-02 -0.66554E-03 -0.11271E-01 -0.22805E-01 -0.32219E-01 -0.35920E-01
 -0.32219E-01 -0.22805E-01 -0.11271E-01 -0.66554E-03  0.73345E-02  0.12152E-01
  0.14179E-01  0.14428E-01  0.13721E-01  0.12293E-01  0.10193E-01  0.76166E-02
  0.47850E-02  0.18889E-02 -0.11372E-02 -0.51697E-02 -0.10653E-01 -0.14583E-01
  0.77039E-02 -0.46101E-02 -0.15431E-01 -0.17299E-01 -0.11764E-01 -0.51550E-02
 -0.47054E-03  0.31550E-02  0.65890E-02  0.96734E-02  0.12293E-01  0.14531E-01
  0.16356E-01  0.17530E-01  0.17300E-01  0.14402E-01  0.76561E-02 -0.42630E-02
 -0.23218E-01 -0.48623E-01 -0.72709E-01 -0.82885E-01 -0.72709E-01 -0.48623E-01
 -0.23218E-01 -0.42630E-02  0.76561E-02  0.14402E-01  0.17300E-01  0.17530E-01
  0.16356E-01  0.14531E-01  0.12293E-01  0.96734E-02  0.65890E-02  0.31550E-02
 -0.47054E-03 -0.51550E-02 -0.11764E-01 -0.17299E-01  0.40285E-02 -0.66289E-02
 -0.15076E-01 -0.15434E-01 -0.97728E-02 -0.35595E-02  0.10524E-02  0.48522E-02
  0.82701E-02  0.11137E-01  0.13721E-01  0.16356E-01  0.18858E-01  0.20630E-01
  0.20687E-01  0.17804E-01  0.10854E-01 -0.21627E-02 -0.24858E-01 -0.57614E-01
 -0.89996E-01 -0.10392E+00 -0.89996E-01 -0.57614E-01 -0.24858E-01 -0.21627E-02
  0.10854E-01  0.17804E-01  0.20687E-01  0.20630E-01  0.18858E-01  0.16356E-01
  0.13721E-01  0.11137E-01  0.82701E-02  0.48522E-02  0.10524E-02 -0.35595E-02
 -0.97728E-02 -0.15434E-01  0.96314E-03 -0.58736E-02 -0.10633E-01 -0.99148E-02
 -0.54616E-02 -0.69206E-03  0.32246E-02  0.65953E-02  0.94293E-02  0.11828E-01
  0.14428E-01  0.17530E-01  0.20630E-01  0.22996E-01  0.23942E-01  0.22568E-01
  0.17777E-01  0.76550E-02 -0.11130E-01 -0.39284E-01 -0.67767E-01 -0.80151E-01
 -0.67767E-01 -0.39284E-01 -0.11130E-01  0.76550E-02  0.17777E-01  0.22568E-01
  0.23942E-01  0.22996E-01  0.20630E-01  0.17530E-01  0.14428E-01  0.11828E-01
  0.94293E-02  0.65953E-02  0.32246E-02 -0.69206E-03 -0.54616E-02 -0.99148E-02
 -0.18943E-03 -0.32791E-02 -0.49624E-02 -0.38148E-02 -0.84248E-03  0.24174E-02
  0.53979E-02  0.79517E-02  0.99628E-02  0.11801E-01  0.14179E-01  0.17300E-01
  0.20687E-01  0.23942E-01  0.26881E-01  0.28673E-01  0.27759E-01  0.22551E-01
  0.11404E-01 -0.58284E-02 -0.23579E-01 -0.31382E-01 -0.23579E-01 -0.58284E-02
  0.11404E-01  0.22551E-01  0.27759E-01  0.28673E-01  0.26881E-01  0.23942E-01
  0.20687E-01  0.17300E-01  0.14179E-01  0.11801E-01  0.99628E-02  0.79517E-02
  0.53979E-02  0.24174E-02 -0.84248E-03 -0.38148E-02 -0.68937E-05 -0.70890E-03
 -0.59999E-03  0.69910E-03  0.27231E-02  0.50061E-02  0.72140E-02  0.89187E-02
  0.99839E-02  0.10840E-01  0.12152E-01  0.14402E-01  0.17804E-01  0.22568E-01