       #
       # Generated by the Wannier90 code http://www.wannier.org
       # On 22Sep2015 at 20:55:29 
       #
CRYSTAL
PRIMVEC
   3.8425000   0.0000000   0.0000000
   0.0000000   3.8425000   0.0000000
   0.0000000   0.0000000   3.8425000
CONVVEC
   3.8425000   0.0000000   0.0000000
   0.0000000   3.8425000   0.0000000
   0.0000000   0.0000000   3.8425000
PRIMCOORD
     5  1
V       0.0000000   0.0000000   0.0000000
Sr      1.9212500   1.9212500   1.9212500
O       1.9212500   0.0000000   0.0000000
O       0.0000000   1.9212500   0.0000000
O       0.0000000   0.0000000   1.9212500


BEGIN_BLOCK_DATAGRID_3D
3D_field
BEGIN_DATAGRID_3D_UNKNOWN
    40    40    40
   -4.034625   -4.034625   -4.034625
   7.4928749   0.0000000   0.0000000
   0.0000000   7.4928749   0.0000000
   0.0000000   0.0000000   7.4928749
 -0.28161E-03  0.20458E-03  0.64102E-03  0.11415E-02  0.15865E-02  0.16032E-02
  0.11286E-02  0.83555E-03  0.22528E-02  0.71181E-02  0.15109E-01  0.22119E-01
  0.23179E-01  0.17949E-01  0.11083E-01  0.67198E-02  0.50745E-02  0.44746E-02
  0.39014E-02  0.30226E-02  0.16858E-02 -0.13601E-07 -0.16859E-02 -0.30226E-02
 -0.39014E-02 -0.44745E-02 -0.50745E-02 -0.67198E-02 -0.11083E-01 -0.17949E-01
 -0.23179E-01 -0.22119E-01 -0.15109E-01 -0.71181E-02 -0.22528E-02 -0.83556E-03
 -0.11286E-02 -0.16032E-02 -0.15865E-02 -0.11414E-02  0.98150E-03  0.64316E-03
  0.57282E-03  0.94169E-03  0.11958E-02  0.83107E-03 -0.31959E-04 -0.72727E-03
  0.26118E-04  0.39005E-02  0.10982E-01  0.17776E-01  0.19485E-01  0.15274E-01
  0.91724E-02  0.51031E-02  0.34052E-02  0.26205E-02  0.19890E-02  0.14099E-02
  0.76565E-03 -0.84568E-08 -0.76566E-03 -0.14099E-02 -0.19890E-02 -0.26205E-02
 -0.34052E-02 -0.51031E-02 -0.91724E-02 -0.15274E-01 -0.19485E-01 -0.17776E-01
 -0.10982E-01 -0.39005E-02 -0.26130E-04  0.72726E-03  0.31961E-04 -0.83107E-03
 -0.11958E-02 -0.94169E-03  0.12048E-02  0.43754E-03  0.36755E-03  0.73822E-03
  0.73857E-03  0.11797E-03 -0.82345E-03 -0.17296E-02 -0.19694E-02 -0.37273E-03
  0.36162E-02  0.82297E-02  0.10257E-01  0.85160E-02  0.50944E-02  0.24643E-02
  0.10583E-02  0.21532E-03 -0.32393E-03 -0.49884E-03 -0.34680E-03  0.10929E-08
  0.34681E-03  0.49886E-03  0.32395E-03 -0.21530E-03 -0.10583E-02 -0.24642E-02
 -0.50944E-02 -0.85161E-02 -0.10257E-01 -0.82297E-02 -0.36162E-02  0.37272E-03
  0.19693E-02  0.17296E-02  0.82344E-03 -0.11798E-03 -0.73858E-03 -0.73824E-03
  0.71597E-03  0.23995E-03  0.41833E-03  0.64796E-03  0.44618E-03 -0.73034E-04
 -0.81574E-03 -0.18828E-02 -0.30630E-02 -0.35879E-02 -0.26362E-02 -0.42351E-03
  0.14941E-02  0.17638E-02  0.65633E-03 -0.72091E-03 -0.17830E-02 -0.24470E-02
 -0.26525E-02 -0.23240E-02 -0.14002E-02  0.11189E-07  0.14002E-02  0.23240E-02
  0.26525E-02  0.24470E-02  0.17830E-02  0.72093E-03 -0.65632E-03 -0.17638E-02
 -0.14941E-02  0.42351E-03  0.26362E-02  0.35879E-02  0.30629E-02  0.18828E-02
  0.81573E-03  0.73019E-04 -0.44620E-03 -0.64798E-03  0.32521E-03  0.58606E-03
  0.92329E-03  0.86383E-03  0.54582E-03  0.19357E-03 -0.49093E-03 -0.17724E-02
 -0.33975E-02 -0.48062E-02 -0.52863E-02 -0.44892E-02 -0.31927E-02 -0.26423E-02
 -0.31112E-02 -0.39798E-02 -0.47494E-02 -0.52094E-02 -0.51537E-02 -0.43418E-02
 -0.25655E-02  0.17956E-07  0.25656E-02  0.43418E-02  0.51537E-02  0.52094E-02
  0.47494E-02  0.39798E-02  0.31112E-02  0.26423E-02  0.31927E-02  0.44892E-02
  0.52863E-02  0.48062E-02  0.33975E-02  0.17723E-02  0.49092E-03 -0.19359E-03
 -0.54584E-03 -0.86386E-03  0.43890E-03  0.13699E-02  0.18256E-02  0.17062E-02
  0.13802E-02  0.86285E-03 -0.19154E-03 -0.16857E-02 -0.31965E-02 -0.44929E-02
 -0.52430E-02 -0.51928E-02 -0.49447E-02 -0.52950E-02 -0.60672E-02 -0.67525E-02
 -0.74219E-02 -0.80885E-02 -0.81490E-02 -0.68966E-02 -0.40384E-02  0.18349E-07
  0.40385E-02  0.68966E-02  0.81490E-02  0.80885E-02  0.74219E-02  0.67525E-02
  0.60672E-02  0.52950E-02  0.49447E-02  0.51928E-02  0.52430E-02  0.44929E-02
  0.31965E-02  0.16857E-02  0.19152E-03 -0.86286E-03 -0.13802E-02 -0.17062E-02
  0.47409E-03  0.20097E-02  0.30067E-02  0.33341E-02  0.30400E-02  0.20145E-02
  0.34555E-03 -0.13351E-02 -0.26249E-02 -0.37366E-02 -0.46791E-02 -0.53042E-02
 -0.60338E-02 -0.71303E-02 -0.80878E-02 -0.88359E-02 -0.10024E-01 -0.11481E-01
 -0.11933E-01 -0.10243E-01 -0.60368E-02  0.13101E-07  0.60368E-02  0.10243E-01
  0.11933E-01  0.11481E-01  0.10024E-01  0.88359E-02  0.80878E-02  0.71303E-02
  0.60338E-02  0.53042E-02  0.46791E-02  0.37366E-02  0.26249E-02  0.13351E-02
 -0.34555E-03 -0.20145E-02 -0.30400E-02 -0.33341E-02 -0.63827E-03  0.23111E-02
  0.48605E-02  0.58603E-02  0.51815E-02  0.34121E-02  0.12327E-02 -0.68598E-03
 -0.21378E-02 -0.34668E-02 -0.47733E-02 -0.59278E-02 -0.71013E-02 -0.82907E-02
 -0.93230E-02 -0.10758E-01 -0.13164E-01 -0.15750E-01 -0.16995E-01 -0.15406E-01
 -0.95667E-02  0.63462E-08  0.95667E-02  0.15407E-01  0.16995E-01  0.15750E-01
  0.13164E-01  0.10758E-01  0.93230E-02  0.82907E-02  0.71013E-02  0.59278E-02
  0.47733E-02  0.34668E-02  0.21378E-02  0.68598E-03 -0.12327E-02 -0.34121E-02
 -0.51815E-02 -0.58603E-02 -0.40462E-02  0.21180E-02  0.77592E-02  0.94923E-02
  0.77104E-02  0.48825E-02  0.22614E-02 -0.94213E-04 -0.21654E-02 -0.39377E-02
 -0.54628E-02 -0.68031E-02 -0.80290E-02 -0.91476E-02 -0.10579E-01 -0.13180E-01
 -0.16937E-01 -0.20949E-01 -0.24371E-01 -0.24501E-01 -0.16447E-01  0.83842E-09
  0.16447E-01  0.24501E-01  0.24371E-01  0.20949E-01  0.16937E-01  0.13180E-01
  0.10579E-01  0.91476E-02  0.80290E-02  0.68031E-02  0.54628E-02  0.39377E-02
  0.21654E-02  0.94223E-04 -0.22614E-02 -0.48825E-02 -0.77104E-02 -0.94923E-02
 -0.10977E-01 -0.11524E-03  0.10264E-01  0.13578E-01  0.10775E-01  0.66471E-02
  0.32496E-02  0.14334E-03 -0.26664E-02 -0.47497E-02 -0.62590E-02 -0.76274E-02
 -0.89386E-02 -0.10226E-01 -0.12247E-01 -0.15798E-01 -0.20585E-01 -0.26702E-01
 -0.34393E-01 -0.38086E-01 -0.26988E-01 -0.50747E-08  0.26988E-01  0.38086E-01
  0.34393E-01  0.26702E-01  0.20585E-01  0.15798E-01  0.12247E-01  0.10226E-01
  0.89386E-02  0.76274E-02  0.62590E-02  0.47497E-02  0.26664E-02 -0.14333E-03
 -0.32496E-02 -0.66471E-02 -0.10775E-01 -0.13578E-01 -0.20832E-01 -0.58902E-02
  0.96464E-02  0.15980E-01  0.13498E-01  0.83946E-02  0.39248E-02  0.66350E-04
 -0.30686E-02 -0.51479E-02 -0.66334E-02 -0.81372E-02 -0.96416E-02 -0.11119E-01
 -0.13407E-01 -0.17262E-01 -0.22719E-01 -0.31295E-01 -0.43868E-01 -0.51389E-01
 -0.37307E-01 -0.12847E-07  0.37307E-01  0.51389E-01  0.43868E-01  0.31295E-01
  0.22719E-01  0.17262E-01  0.13407E-01  0.11119E-01  0.96416E-02  0.81372E-02
  0.66334E-02  0.51480E-02  0.30686E-02 -0.66342E-04 -0.39248E-02 -0.83946E-02
 -0.13498E-01 -0.15980E-01 -0.28817E-01 -0.12809E-01  0.56146E-02  0.14999E-01
  0.14190E-01  0.91826E-02  0.42843E-02  0.43138E-03 -0.23487E-02 -0.43164E-02
 -0.60622E-02 -0.78596E-02 -0.94642E-02 -0.10872E-01 -0.12968E-01 -0.16590E-01
 -0.22157E-01 -0.31849E-01 -0.46621E-01 -0.55901E-01 -0.40946E-01 -0.16226E-07
  0.40946E-01  0.55901E-01  0.46621E-01  0.31849E-01  0.22157E-01  0.16590E-01
  0.12968E-01  0.10872E-01  0.94643E-02  0.78596E-02  0.60622E-02  0.43164E-02
  0.23487E-02 -0.43138E-03 -0.42843E-02 -0.91826E-02 -0.14190E-01 -0.14999E-01
 -0.28903E-01 -0.15364E-01  0.16398E-02  0.11762E-01  0.12741E-01  0.91456E-02
  0.52414E-02  0.23648E-02  0.16976E-03 -0.20311E-02 -0.43870E-02 -0.64947E-02
 -0.80446E-02 -0.92656E-02 -0.11062E-01 -0.14218E-01 -0.19015E-01 -0.27131E-01
 -0.39495E-01 -0.47401E-01 -0.34815E-01 -0.65336E-08  0.34815E-01  0.47401E-01
  0.39495E-01  0.27131E-01  0.19015E-01  0.14218E-01  0.11062E-01  0.92656E-02
  0.80447E-02  0.64947E-02  0.43870E-02  0.20311E-02 -0.16976E-03 -0.23648E-02
 -0.52414E-02 -0.91456E-02 -0.12741E-01 -0.11762E-01 -0.20563E-01 -0.11278E-01
  0.98591E-03  0.92795E-02  0.11375E-01  0.98782E-02  0.78106E-02  0.61197E-02
  0.41595E-02  0.13790E-02 -0.16457E-02 -0.40551E-02 -0.57369E-02 -0.70828E-02
 -0.87326E-02 -0.11223E-01 -0.14509E-01 -0.19267E-01 -0.26333E-01 -0.30833E-01
 -0.22556E-01  0.11256E-07  0.22556E-01  0.30833E-01  0.26333E-01  0.19267E-01
  0.14509E-01  0.11223E-01  0.87326E-02  0.70828E-02  0.57369E-02  0.40551E-02
  0.16457E-02 -0.13790E-02 -0.41595E-02 -0.61197E-02 -0.78105E-02 -0.98782E-02
 -0.11375E-01 -0.92795E-02 -0.96135E-02 -0.40849E-02  0.33516E-02  0.94051E-02
  0.12201E-01  0.12547E-01  0.12168E-01  0.11523E-01  0.97639E-02  0.65310E-02
  0.27629E-02 -0.61066E-03 -0.34776E-02 -0.57705E-02 -0.73708E-02 -0.86171E-02
 -0.98601E-02 -0.11467E-01 -0.13861E-01 -0.15140E-01 -0.10794E-01  0.20470E-07
  0.10794E-01  0.15140E-01  0.13861E-01  0.11467E-01  0.98601E-02  0.86171E-02
  0.73708E-02  0.57704E-02  0.34776E-02  0.61065E-03 -0.27629E-02 -0.65310E-02
 -0.97639E-02 -0.11523E-01 -0.12168E-01 -0.12547E-01 -0.12201E-01 -0.94051E-02
 -0.14814E-02  0.18759E-02  0.67280E-02  0.11877E-01  0.15345E-01  0.17150E-01
  0.18667E-01  0.19712E-01  0.18655E-01  0.14918E-01  0.94437E-02  0.32599E-02
 -0.27524E-02 -0.71934E-02 -0.88454E-02 -0.80435E-02 -0.64616E-02 -0.55331E-02
 -0.53779E-02 -0.49641E-02 -0.31639E-02  0.15404E-07  0.31639E-02  0.49642E-02
  0.53779E-02  0.55331E-02  0.64616E-02  0.80435E-02  0.88454E-02  0.71933E-02
  0.27524E-02 -0.32599E-02 -0.94437E-02 -0.14918E-01 -0.18655E-01 -0.19712E-01
 -0.18667E-01 -0.17150E-01 -0.15345E-01 -0.11877E-01  0.31883E-02  0.58230E-02
  0.10286E-01  0.15689E-01  0.19964E-01  0.23792E-01  0.28509E-01  0.32262E-01
  0.32184E-01  0.27601E-01  0.18921E-01  0.70244E-02 -0.50702E-02 -0.13150E-01
 -0.15014E-01 -0.11684E-01 -0.63986E-02 -0.23416E-02 -0.26062E-03  0.83048E-03
  0.10159E-02  0.57459E-08 -0.10159E-02 -0.83047E-03  0.26062E-03  0.23416E-02
  0.63986E-02  0.11684E-01  0.15014E-01  0.13150E-01  0.50702E-02 -0.70244E-02
 -0.18921E-01 -0.27601E-01 -0.32184E-01 -0.32262E-01 -0.28509E-01 -0.23792E-01
 -0.19964E-01 -0.15689E-01  0.59003E-02  0.87733E-02  0.13942E-01  0.20024E-01
  0.25682E-01  0.32977E-01  0.42229E-01  0.49490E-01  0.52188E-01  0.49427E-01
  0.37292E-01  0.14290E-01 -0.10724E-01 -0.25768E-01 -0.27627E-01 -0.20929E-01
 -0.11231E-01 -0.26738E-02  0.27015E-02  0.48767E-02  0.38271E-02 -0.35730E-08
 -0.38271E-02 -0.48767E-02 -0.27015E-02  0.26738E-02  0.11231E-01  0.20929E-01
  0.27627E-01  0.25768E-01  0.10724E-01 -0.14290E-01 -0.37292E-01 -0.49427E-01
 -0.52188E-01 -0.49490E-01 -0.42229E-01 -0.32977E-01 -0.25682E-01 -0.20024E-01
  0.71083E-02  0.10751E-01  0.17017E-01  0.24171E-01  0.32302E-01  0.44318E-01
  0.58748E-01  0.71930E-01  0.84949E-01  0.93412E-01  0.79310E-01  0.34434E-01
 -0.18341E-01 -0.48120E-01 -0.49213E-01 -0.36161E-01 -0.20588E-01 -0.63864E-02
  0.39721E-02  0.83765E-02  0.64078E-02 -0.15804E-07 -0.64078E-02 -0.83765E-02
 -0.39721E-02  0.63864E-02  0.20588E-01  0.36161E-01  0.49213E-01  0.48120E-01
  0.18341E-01 -0.34434E-01 -0.79310E-01 -0.93412E-01 -0.84949E-01 -0.71930E-01
 -0.58748E-01 -0.44318E-01 -0.32302E-01 -0.24171E-01  0.68689E-02  0.11389E-01
  0.18830E-01  0.27521E-01  0.38927E-01  0.55857E-01  0.75844E-01  0.99706E-01
  0.13460E+00  0.16645E+00  0.15187E+00  0.72297E-01 -0.25820E-01 -0.80164E-01
 -0.79897E-01 -0.56118E-01 -0.32226E-01 -0.11819E-01  0.40564E-02  0.11365E-01
  0.88368E-02 -0.25887E-07 -0.88368E-02 -0.11366E-01 -0.40564E-02  0.11819E-01
  0.32226E-01  0.56118E-01  0.79897E-01  0.80164E-01  0.25820E-01 -0.72297E-01
 -0.15187E+00 -0.16645E+00 -0.13460E+00 -0.99706E-01 -0.75844E-01 -0.55857E-01
 -0.38927E-01 -0.27521E-01  0.60441E-02  0.11192E-01  0.19541E-01  0.29695E-01
  0.43957E-01  0.64655E-01  0.89682E-01  0.12612E+00  0.18652E+00  0.24444E+00
  0.22972E+00  0.11413E+00 -0.31266E-01 -0.11171E+00 -0.11028E+00 -0.74921E-01
 -0.42322E-01 -0.16524E-01  0.37331E-02  0.13496E-01  0.10686E-01 -0.23408E-07
 -0.10686E-01 -0.13496E-01 -0.37331E-02  0.16524E-01  0.42322E-01  0.74921E-01
  0.11028E+00  0.11171E+00  0.31266E-01 -0.11413E+00 -0.22972E+00 -0.24444E+00
 -0.18652E+00 -0.12612E+00 -0.89682E-01 -0.64655E-01 -0.43957E-01 -0.29695E-01
  0.56452E-02  0.11011E-01  0.19698E-01  0.30455E-01  0.45847E-01  0.67972E-01
  0.95163E-01  0.13747E+00  0.20951E+00  0.27904E+00  0.26422E+00  0.13284E+00
 -0.33271E-01 -0.12526E+00 -0.12341E+00 -0.82891E-01 -0.46405E-01 -0.18376E-01
  0.35684E-02  0.14290E-01  0.11394E-01 -0.10859E-07 -0.11394E-01 -0.14290E-01
 -0.35684E-02  0.18376E-01  0.46405E-01  0.82891E-01  0.12341E+00  0.12526E+00
  0.33271E-01 -0.13284E+00 -0.26422E+00 -0.27904E+00 -0.20951E+00 -0.13747E+00
 -0.95163E-01 -0.67972E-01 -0.45846E-01 -0.30455E-01  0.60441E-02  0.11192E-01
  0.19541E-01  0.29695E-01  0.43957E-01  0.64655E-01  0.89682E-01  0.12612E+00
  0.18652E+00  0.24444E+00  0.22972E+00  0.11413E+00 -0.31267E-01 -0.11171E+00
 -0.11028E+00 -0.74921E-01 -0.42322E-01 -0.16524E-01  0.37331E-02  0.13496E-01
  0.10686E-01 -0.11742E-08 -0.10686E-01 -0.13496E-01 -0.37331E-02  0.16524E-01
  0.42322E-01  0.74921E-01  0.11028E+00  0.11171E+00  0.31267E-01 -0.11413E+00
 -0.22972E+00 -0.24444E+00 -0.18652E+00 -0.12612E+00 -0.89682E-01 -0.64655E-01
 -0.43957E-01 -0.29695E-01  0.68690E-02  0.11389E-01  0.18830E-01  0.27521E-01
  0.38927E-01  0.55857E-01  0.75844E-01  0.99706E-01  0.13460E+00  0.16645E+00
  0.15187E+00  0.72297E-01 -0.25820E-01 -0.80164E-01 -0.79897E-01 -0.56118E-01
 -0.32226E-01 -0.11819E-01  0.40564E-02  0.11365E-01  0.88368E-02 -0.15594E-08
 -0.88368E-02 -0.11365E-01 -0.40564E-02  0.11819E-01  0.32226E-01  0.56118E-01
  0.79897E-01  0.80164E-01  0.25820E-01 -0.72297E-01 -0.15187E+00 -0.16645E+00
 -0.13460E+00 -0.99706E-01 -0.75844E-01 -0.55857E-01 -0.38927E-01 -0.27521E-01
  0.71084E-02  0.10751E-01  0.17017E-01  0.24171E-01  0.32302E-01  0.44318E-01
  0.58748E-01  0.71930E-01  0.84949E-01  0.93412E-01  0.79310E-01  0.34434E-01
 -0.18341E-01 -0.48120E-01 -0.49213E-01 -0.36161E-01 -0.20588E-01 -0.63864E-02
  0.39721E-02  0.83765E-02  0.64078E-02 -0.97550E-08 -0.64078E-02 -0.83765E-02
 -0.39721E-02  0.63864E-02  0.20588E-01  0.36161E-01  0.49213E-01  0.48120E-01
  0.18341E-01 -0.34434E-01 -0.79310E-01 -0.93412E-01 -0.84949E-01 -0.71930E-01
 -0.58748E-01 -0.44318E-01 -0.32302E-01 -0.24171E-01  0.59003E-02  0.87733E-02
  0.13942E-01  0.20024E-01  0.25682E-01  0.32977E-01  0.42229E-01  0.49490E-01
  0.52188E-01  0.49427E-01  0.37292E-01  0.14290E-01 -0.10724E-01 -0.25768E-01
 -0.27627E-01 -0.20929E-01 -0.11231E-01 -0.26738E-02  0.27015E-02  0.48767E-02
  0.38271E-02 -0.17984E-07 -0.38271E-02 -0.48768E-02 -0.27015E-02  0.26738E-02
  0.11231E-01  0.20929E-01  0.27627E-01  0.25768E-01  0.10724E-01 -0.14290E-01
 -0.37292E-01 -0.49427E-01 -0.52188E-01 -0.49490E-01 -0.42229E-01 -0.32977E-01
 -0.25682E-01 -0.20024E-01  0.31883E-02  0.58230E-02  0.10286E-01  0.15689E-01
  0.19964E-01  0.23792E-01  0.28509E-01  0.32262E-01  0.32184E-01  0.27601E-01
  0.18921E-01  0.70244E-02 -0.50702E-02 -0.13150E-01 -0.15014E-01 -0.11684E-01
 -0.63986E-02 -0.23416E-02 -0.26063E-03  0.83045E-03  0.10159E-02 -0.17743E-07
 -0.10159E-02 -0.83048E-03  0.26061E-03  0.23416E-02  0.63986E-02  0.11684E-01
  0.15014E-01  0.13150E-01  0.50702E-02 -0.70244E-02 -0.18921E-01 -0.27601E-01
 -0.32184E-01 -0.32262E-01 -0.28509E-01 -0.23792E-01 -0.19964E-01 -0.15689E-01
 -0.14813E-02  0.18759E-02  0.67280E-02  0.11878E-01  0.15345E-01  0.17150E-01
  0.18667E-01  0.19712E-01  0.18655E-01  0.14918E-01  0.94437E-02  0.32599E-02
 -0.27524E-02 -0.71933E-02 -0.88454E-02 -0.80435E-02 -0.64616E-02 -0.55331E-02
 -0.53779E-02 -0.49642E-02 -0.31639E-02 -0.90889E-08  0.31639E-02  0.49642E-02
  0.53779E-02  0.55331E-02  0.64616E-02  0.80435E-02  0.88454E-02  0.71933E-02
  0.27524E-02 -0.32599E-02 -0.94437E-02 -0.14918E-01 -0.18655E-01 -0.19712E-01
 -0.18667E-01 -0.17150E-01 -0.15345E-01 -0.11878E-01 -0.96136E-02 -0.40849E-02
  0.33516E-02  0.94051E-02  0.12201E-01  0.12547E-01  0.12168E-01  0.11523E-01
  0.97639E-02  0.65310E-02  0.27629E-02 -0.61064E-03 -0.34776E-02 -0.57704E-02
 -0.73708E-02 -0.86171E-02 -0.98601E-02 -0.11467E-01 -0.13861E-01 -0.15140E-01
 -0.10794E-01 -0.23765E-09  0.10794E-01  0.15140E-01  0.13861E-01  0.11467E-01
  0.98601E-02  0.86171E-02  0.73708E-02  0.57704E-02  0.34776E-02  0.61064E-03
 -0.27629E-02 -0.65310E-02 -0.97639E-02 -0.11523E-01 -0.12168E-01 -0.12547E-01
 -0.12201E-01 -0.94051E-02 -0.20564E-01 -0.11278E-01  0.98590E-03  0.92795E-02
  0.11375E-01  0.98782E-02  0.78105E-02  0.61197E-02  0.41594E-02  0.13790E-02
 -0.16457E-02 -0.40551E-02 -0.57369E-02 -0.70828E-02 -0.87326E-02 -0.11223E-01
 -0.14509E-01 -0.19267E-01 -0.26333E-01 -0.30833E-01 -0.22556E-01  0.68424E-08
  0.22556E-01  0.30833E-01  0.26333E-01  0.19267E-01  0.14509E-01  0.11223E-01
  0.87326E-02  0.70828E-02  0.57369E-02  0.40551E-02  0.16457E-02 -0.13790E-02
 -0.41595E-02 -0.61197E-02 -0.78105E-02 -0.98782E-02 -0.11375E-01 -0.92796E-02
 -0.28903E-01 -0.15364E-01  0.16398E-02  0.11762E-01  0.12741E-01  0.91456E-02
  0.52414E-02  0.23648E-02  0.16976E-03 -0.20311E-02 -0.43870E-02 -0.64946E-02
 -0.80447E-02 -0.92656E-02 -0.11062E-01 -0.14218E-01 -0.19015E-01 -0.27131E-01
 -0.39495E-01 -0.47401E-01 -0.34815E-01  0.16459E-07  0.34815E-01  0.47401E-01
  0.39495E-01  0.27131E-01  0.19015E-01  0.14218E-01  0.11062E-01  0.92656E-02
  0.80447E-02  0.64946E-02  0.43870E-02  0.20311E-02 -0.16976E-03 -0.23648E-02
 -0.52414E-02 -0.91456E-02 -0.12741E-01 -0.11762E-01 -0.28818E-01 -0.12809E-01
  0.56145E-02  0.14999E-01  0.14190E-01  0.91826E-02  0.42843E-02  0.43135E-03
 -0.23487E-02 -0.43163E-02 -0.60621E-02 -0.78596E-02 -0.94643E-02 -0.10872E-01
 -0.12968E-01 -0.16590E-01 -0.22157E-01 -0.31849E-01 -0.46621E-01 -0.55901E-01
 -0.40946E-01  0.23245E-07  0.40946E-01  0.55901E-01  0.46621E-01  0.31849E-01
  0.22157E-01  0.16590E-01  0.12968E-01  0.10872E-01  0.94643E-02  0.78596E-02
  0.60621E-02  0.43163E-02  0.23487E-02 -0.43136E-03 -0.42843E-02 -0.91826E-02
 -0.14190E-01 -0.14999E-01 -0.20832E-01 -0.58903E-02  0.96463E-02  0.15980E-01
  0.13498E-01  0.83946E-02  0.39248E-02  0.66313E-04 -0.30686E-02 -0.51479E-02
 -0.66334E-02 -0.81372E-02 -0.96416E-02 -0.11119E-01 -0.13407E-01 -0.17262E-01
 -0.22719E-01 -0.31295E-01 -0.43868E-01 -0.51389E-01 -0.37307E-01  0.16255E-07
  0.37307E-01  0.51389E-01  0.43868E-01  0.31295E-01  0.22719E-01  0.17262E-01
  0.13407E-01  0.11119E-01  0.96416E-02  0.81372E-02  0.66333E-02  0.51479E-02
  0.30686E-02 -0.66329E-04 -0.39248E-02 -0.83946E-02 -0.13498E-01 -0.15980E-01
 -0.10977E-01 -0.11528E-03  0.10264E-01  0.13578E-01  0.10775E-01  0.66471E-02
  0.32495E-02  0.14331E-03 -0.26664E-02 -0.47497E-02 -0.62590E-02 -0.76274E-02
 -0.89387E-02 -0.10226E-01 -0.12247E-01 -0.15798E-01 -0.20585E-01 -0.26701E-01
 -0.34393E-01 -0.38086E-01 -0.26988E-01 -0.10623E-08  0.26988E-01  0.38086E-01
  0.34393E-01  0.26701E-01  0.20585E-01  0.15798E-01  0.12247E-01  0.10226E-01
  0.89386E-02  0.76274E-02  0.62590E-02  0.47496E-02  0.26664E-02 -0.14333E-03
 -0.32495E-02 -0.66471E-02 -0.10775E-01 -0.13578E-01 -0.40462E-02  0.21180E-02
  0.77592E-02  0.94923E-02  0.77104E-02  0.48825E-02  0.22614E-02 -0.94232E-04
 -0.21654E-02 -0.39377E-02 -0.54629E-02 -0.68031E-02 -0.80290E-02 -0.91477E-02
 -0.10579E-01 -0.13180E-01 -0.16937E-01 -0.20949E-01 -0.24371E-01 -0.24501E-01
 -0.16447E-01 -0.14193E-07  0.16447E-01  0.24501E-01  0.24371E-01  0.20949E-01
  0.16937E-01  0.13180E-01  0.10579E-01  0.91477E-02  0.80290E-02  0.68031E-02
  0.54628E-02  0.39377E-02  0.21654E-02  0.94216E-04 -0.22614E-02 -0.48825E-02
 -0.77104E-02 -0.94923E-02 -0.63826E-03  0.23112E-02  0.48605E-02  0.58603E-02
  0.51815E-02  0.34121E-02  0.12327E-02 -0.68598E-03 -0.21378E-02 -0.34668E-02
 -0.47733E-02 -0.59278E-02 -0.71013E-02 -0.82907E-02 -0.93230E-02 -0.10758E-01
 -0.13164E-01 -0.15750E-01 -0.16995E-01 -0.15407E-01 -0.95667E-02 -0.17251E-07
  0.95667E-02  0.15406E-01  0.16995E-01  0.15750E-01  0.13164E-01  0.10758E-01
  0.93230E-02  0.82907E-02  0.71013E-02  0.59278E-02  0.47733E-02  0.34668E-02
  0.21378E-02  0.68597E-03 -0.12327E-02 -0.34121E-02 -0.51815E-02 -0.58603E-02
  0.47412E-03  0.20097E-02  0.30068E-02  0.33341E-02  0.30400E-02  0.20146E-02
  0.34557E-03 -0.13350E-02 -0.26249E-02 -0.37366E-02 -0.46791E-02 -0.53042E-02
 -0.60338E-02 -0.71303E-02 -0.80878E-02 -0.88359E-02 -0.10024E-01 -0.11481E-01
 -0.11933E-01 -0.10243E-01 -0.60368E-02 -0.14763E-07  0.60368E-02  0.10243E-01
  0.11933E-01  0.11481E-01  0.10024E-01  0.88359E-02  0.80878E-02  0.71303E-02
  0.60338E-02  0.53042E-02  0.46791E-02  0.37366E-02  0.26249E-02  0.13350E-02
 -0.34557E-03 -0.20146E-02 -0.30400E-02 -0.33341E-02  0.43893E-03  0.13700E-02
  0.18257E-02  0.17062E-02  0.13803E-02  0.86289E-03 -0.19150E-03 -0.16856E-02
 -0.31965E-02 -0.44929E-02 -0.52430E-02 -0.51928E-02 -0.49447E-02 -0.52950E-02
 -0.60672E-02 -0.67525E-02 -0.74219E-02 -0.80885E-02 -0.81490E-02 -0.68966E-02
 -0.40385E-02 -0.11469E-07  0.40384E-02  0.68966E-02  0.81490E-02  0.80885E-02
  0.74219E-02  0.67525E-02  0.60672E-02  0.52950E-02  0.49447E-02  0.51928E-02
  0.52430E-02  0.44929E-02  0.31965E-02  0.16856E-02  0.19151E-03 -0.86286E-03
 -0.13802E-02 -0.17062E-02  0.32523E-03  0.58609E-03  0.92332E-03  0.86388E-03
  0.54587E-03  0.19362E-03 -0.49089E-03 -0.17723E-02 -0.33974E-02 -0.48062E-02
 -0.52863E-02 -0.44892E-02 -0.31927E-02 -0.26423E-02 -0.31112E-02 -0.39798E-02
 -0.47494E-02 -0.52094E-02 -0.51537E-02 -0.43418E-02 -0.25656E-02 -0.95652E-08
  0.25655E-02  0.43418E-02  0.51537E-02  0.52094E-02  0.47494E-02  0.39798E-02
  0.31112E-02  0.26423E-02  0.31927E-02  0.44893E-02  0.52863E-02  0.48062E-02
  0.33975E-02  0.17723E-02  0.49091E-03 -0.19358E-03 -0.54582E-03 -0.86384E-03
  0.71599E-03  0.23996E-03  0.41835E-03  0.64800E-03  0.44623E-03 -0.72985E-04
 -0.81570E-03 -0.18828E-02 -0.30629E-02 -0.35879E-02 -0.26361E-02 -0.42349E-03
  0.14941E-02  0.17638E-02  0.65631E-03 -0.72092E-03 -0.17830E-02 -0.24470E-02
 -0.26525E-02 -0.23240E-02 -0.14002E-02 -0.76246E-08  0.14002E-02  0.23240E-02
  0.26525E-02  0.24470E-02  0.17830E-02  0.72091E-03 -0.65632E-03 -0.17638E-02
 -0.14941E-02  0.42354E-03  0.26362E-02  0.35879E-02  0.30629E-02  0.18828E-02
  0.81573E-03  0.73024E-04 -0.44619E-03 -0.64796E-03  0.20458E-03 -0.13307E-04
 -0.17051E-03  0.57945E-04  0.18067E-03 -0.59454E-03 -0.24310E-02 -0.51315E-02
 -0.85115E-02 -0.11307E-01 -0.11044E-01 -0.70015E-02 -0.20107E-02  0.72623E-03
  0.11100E-02  0.88951E-03  0.88502E-03  0.90297E-03  0.79803E-03  0.58525E-03
  0.29786E-03 -0.76138E-08 -0.29787E-03 -0.58524E-03 -0.79801E-03 -0.90296E-03
 -0.88501E-03 -0.88950E-03 -0.11100E-02 -0.72625E-03  0.20107E-02  0.70015E-02
  0.11044E-01  0.11307E-01  0.85115E-02  0.51315E-02  0.24310E-02  0.59455E-03
 -0.18067E-03 -0.57935E-04  0.64315E-03 -0.18215E-03 -0.35944E-03 -0.60967E-05
 -0.14952E-03 -0.13876E-02 -0.35227E-02 -0.66865E-02 -0.11447E-01 -0.16655E-01
 -0.18734E-01 -0.15404E-01 -0.89902E-02 -0.37828E-02 -0.13910E-02 -0.67019E-03
 -0.49289E-03 -0.56756E-03 -0.71003E-03 -0.69810E-03 -0.44372E-03 -0.38513E-08
  0.44372E-03  0.69812E-03  0.71005E-03  0.56758E-03  0.49291E-03  0.67021E-03
  0.13910E-02  0.37828E-02  0.89902E-02  0.15404E-01  0.18734E-01  0.16655E-01
  0.11447E-01  0.66865E-02  0.35227E-02  0.13876E-02  0.14952E-03  0.60947E-05
  0.43753E-03 -0.32151E-03 -0.23376E-03 -0.15859E-04 -0.57213E-03 -0.19185E-02
 -0.38003E-02 -0.68388E-02 -0.12055E-01 -0.18545E-01 -0.22553E-01 -0.20815E-01
 -0.14520E-01 -0.80031E-02 -0.40818E-02 -0.25438E-02 -0.21671E-02 -0.21863E-02
 -0.22108E-02 -0.19532E-02 -0.11987E-02  0.44761E-08  0.11988E-02  0.19532E-02
  0.22108E-02  0.21863E-02  0.21672E-02  0.25439E-02  0.40818E-02  0.80031E-02
  0.14520E-01  0.20815E-01  0.22553E-01  0.18545E-01  0.12055E-01  0.68388E-02
  0.38003E-02  0.19185E-02  0.57212E-03  0.15841E-04  0.23994E-03 -0.63691E-05
  0.12237E-03 -0.86914E-04 -0.78558E-03 -0.17061E-02 -0.31011E-02 -0.57805E-02
 -0.10340E-01 -0.16005E-01 -0.19994E-01 -0.19469E-01 -0.14798E-01 -0.93553E-02
 -0.58823E-02 -0.45448E-02 -0.42480E-02 -0.41815E-02 -0.40058E-02 -0.34328E-02
 -0.20876E-02  0.15397E-07  0.20877E-02  0.34328E-02  0.40058E-02  0.41815E-02
  0.42481E-02  0.45448E-02  0.58823E-02  0.93553E-02  0.14798E-01  0.19469E-01
  0.19994E-01  0.16005E-01  0.10340E-01  0.57805E-02  0.31011E-02  0.17061E-02
  0.78556E-03  0.86886E-04  0.58606E-03  0.86019E-03  0.80977E-03  0.28872E-03
 -0.23872E-03 -0.75238E-03 -0.19591E-02 -0.42510E-02 -0.74190E-02 -0.10947E-01
 -0.13536E-01 -0.13590E-01 -0.11232E-01 -0.84450E-02 -0.67582E-02 -0.61669E-02
 -0.61345E-02 -0.62891E-02 -0.62400E-02 -0.54114E-02 -0.32726E-02  0.23725E-07
  0.32727E-02  0.54115E-02  0.62400E-02  0.62891E-02  0.61345E-02  0.61669E-02
  0.67582E-02  0.84450E-02  0.11232E-01  0.13590E-01  0.13536E-01  0.10947E-01
  0.74190E-02  0.42510E-02  0.19591E-02  0.75237E-03  0.23870E-03 -0.28875E-03
  0.13699E-02  0.20487E-02  0.20982E-02  0.17793E-02  0.14438E-02  0.75926E-03
 -0.71868E-03 -0.26170E-02 -0.44336E-02 -0.62457E-02 -0.77909E-02 -0.83051E-02
 -0.78751E-02 -0.73589E-02 -0.70762E-02 -0.70112E-02 -0.74808E-02 -0.84223E-02
 -0.88932E-02 -0.78007E-02 -0.46583E-02  0.23890E-07  0.46584E-02  0.78007E-02
  0.88932E-02  0.84223E-02  0.74808E-02  0.70112E-02  0.70762E-02  0.73589E-02
  0.78751E-02  0.83051E-02  0.77910E-02  0.62457E-02  0.44336E-02  0.26169E-02
  0.71866E-03 -0.75928E-03 -0.14439E-02 -0.17793E-02  0.20097E-02  0.34366E-02
  0.43011E-02  0.45284E-02  0.40275E-02  0.26313E-02  0.64990E-03 -0.10764E-02
 -0.23334E-02 -0.36922E-02 -0.51247E-02 -0.60278E-02 -0.64873E-02 -0.68955E-02
 -0.72044E-02 -0.77627E-02 -0.92860E-02 -0.11307E-01 -0.12208E-01 -0.10691E-01
 -0.63646E-02  0.16660E-07  0.63646E-02  0.10691E-01  0.12208E-01  0.11307E-01
  0.92860E-02  0.77627E-02  0.72044E-02  0.68955E-02  0.64873E-02  0.60278E-02
  0.51247E-02  0.36922E-02  0.23334E-02  0.10764E-02 -0.64991E-03 -0.26313E-02
 -0.40276E-02 -0.45284E-02  0.23111E-02  0.58094E-02  0.83462E-02  0.86817E-02
  0.70630E-02  0.45310E-02  0.19444E-02 -0.16059E-03 -0.18384E-02 -0.35043E-02
 -0.50044E-02 -0.59178E-02 -0.64659E-02 -0.70430E-02 -0.78888E-02 -0.96335E-02
 -0.12522E-01 -0.15440E-01 -0.16897E-01 -0.15522E-01 -0.97529E-02  0.88864E-08
  0.97530E-02  0.15523E-01  0.16897E-01  0.15440E-01  0.12522E-01  0.96335E-02
  0.78888E-02  0.70430E-02  0.64659E-02  0.59179E-02  0.50044E-02  0.35043E-02
  0.18384E-02  0.16059E-03 -0.19444E-02 -0.45310E-02 -0.70630E-02 -0.86817E-02
  0.21180E-02  0.98345E-02  0.15133E-01  0.14841E-01  0.10777E-01  0.63801E-02
  0.28148E-02 -0.24210E-03 -0.28369E-02 -0.48010E-02 -0.60860E-02 -0.68352E-02
 -0.74050E-02 -0.81811E-02 -0.97600E-02 -0.12735E-01 -0.16660E-01 -0.20685E-01
 -0.24451E-01 -0.25212E-01 -0.17247E-01  0.54129E-08  0.17247E-01  0.25212E-01
  0.24451E-01  0.20685E-01  0.16660E-01  0.12735E-01  0.97600E-02  0.81811E-02
  0.74050E-02  0.68353E-02  0.60860E-02  0.48010E-02  0.28369E-02  0.24210E-03
 -0.28148E-02 -0.63801E-02 -0.10777E-01 -0.14841E-01 -0.11525E-03  0.13400E-01
  0.22841E-01  0.22350E-01  0.15404E-01  0.83477E-02  0.31504E-02 -0.10664E-02
 -0.43723E-02 -0.63884E-02 -0.74989E-02 -0.83413E-02 -0.91381E-02 -0.10116E-01
 -0.12114E-01 -0.15683E-01 -0.20362E-01 -0.26756E-01 -0.35689E-01 -0.40779E-01
 -0.29380E-01  0.36953E-08  0.29380E-01  0.40779E-01  0.35689E-01  0.26756E-01
  0.20362E-01  0.15683E-01  0.12114E-01  0.10116E-01  0.91382E-02  0.83413E-02
  0.74989E-02  0.63884E-02  0.43723E-02  0.10664E-02 -0.31504E-02 -0.83477E-02
 -0.15404E-01 -0.22350E-01 -0.58902E-02  0.12515E-01  0.26673E-01  0.27767E-01
  0.19360E-01  0.98881E-02  0.29433E-02 -0.20249E-02 -0.54524E-02 -0.74583E-02
 -0.87417E-02 -0.98524E-02 -0.10714E-01 -0.11519E-01 -0.13341E-01 -0.16907E-01
 -0.22397E-01 -0.32057E-01 -0.47048E-01 -0.56619E-01 -0.41552E-01 -0.65990E-09
  0.41552E-01  0.56619E-01  0.47048E-01  0.32057E-01  0.22397E-01  0.16907E-01
  0.13341E-01  0.11519E-01  0.10714E-01  0.98525E-02  0.87417E-02  0.74583E-02
  0.54524E-02  0.20249E-02 -0.29433E-02 -0.98881E-02 -0.19360E-01 -0.27767E-01
 -0.12809E-01  0.67006E-02  0.23707E-01  0.27496E-01  0.20004E-01  0.99755E-02
  0.24970E-02 -0.23056E-02 -0.54879E-02 -0.77528E-02 -0.94852E-02 -0.10686E-01
 -0.11246E-01 -0.11608E-01 -0.12946E-01 -0.16123E-01 -0.21860E-01 -0.33108E-01
 -0.50828E-01 -0.62329E-01 -0.45993E-01 -0.35038E-08  0.45993E-01  0.62329E-01
  0.50828E-01  0.33108E-01  0.21860E-01  0.16123E-01  0.12946E-01  0.11608E-01
  0.11246E-01  0.10686E-01  0.94852E-02  0.77528E-02  0.54879E-02  0.23056E-02
 -0.24970E-02 -0.99755E-02 -0.20004E-01 -0.27496E-01 -0.15364E-01  0.81446E-03
  0.16697E-01  0.22065E-01  0.17033E-01  0.88998E-02  0.27519E-02 -0.12032E-02
 -0.44006E-02 -0.73564E-02 -0.95674E-02 -0.10642E-01 -0.10896E-01 -0.11018E-01
 -0.11897E-01 -0.14235E-01 -0.18739E-01 -0.27910E-01 -0.42696E-01 -0.52536E-01
 -0.38915E-01  0.43208E-08  0.38915E-01  0.52536E-01  0.42696E-01  0.27910E-01
  0.18739E-01  0.14235E-01  0.11897E-01  0.11018E-01  0.10896E-01  0.10642E-01
  0.95674E-02  0.73564E-02  0.44006E-02  0.12032E-02 -0.27519E-02 -0.88998E-02
 -0.17033E-01 -0.22065E-01 -0.11278E-01 -0.60514E-03  0.10923E-01  0.15818E-01
  0.13348E-01  0.83941E-02  0.44322E-02  0.11757E-02 -0.25128E-02 -0.62579E-02
 -0.88574E-02 -0.10067E-01 -0.10593E-01 -0.10851E-01 -0.11113E-01 -0.11979E-01
 -0.14060E-01 -0.18816E-01 -0.27177E-01 -0.33070E-01 -0.24587E-01  0.19564E-07
  0.24587E-01  0.33070E-01  0.27177E-01  0.18816E-01  0.14060E-01  0.11979E-01
  0.11113E-01  0.10851E-01  0.10593E-01  0.10067E-01  0.88574E-02  0.62579E-02
  0.25128E-02 -0.11757E-02 -0.44322E-02 -0.83941E-02 -0.13348E-01 -0.15818E-01
 -0.40849E-02  0.18879E-02  0.87948E-02  0.12391E-01  0.11817E-01  0.96157E-02
  0.74083E-02  0.45269E-02  0.43267E-03 -0.39200E-02 -0.74192E-02 -0.10063E-01
 -0.12050E-01 -0.12716E-01 -0.11720E-01 -0.10142E-01 -0.93119E-02 -0.10087E-01
 -0.12773E-01 -0.14827E-01 -0.10926E-01  0.26240E-07  0.10926E-01  0.14828E-01
  0.12773E-01  0.10087E-01  0.93119E-02  0.10142E-01  0.11720E-01  0.12716E-01
  0.12050E-01  0.10063E-01  0.74192E-02  0.39200E-02 -0.43267E-03 -0.45269E-02
 -0.74083E-02 -0.96157E-02 -0.11817E-01 -0.12391E-01  0.18759E-02  0.52791E-02
  0.94391E-02  0.12227E-01  0.12816E-01  0.12481E-01  0.11797E-01  0.96782E-02
  0.55341E-02  0.55801E-04 -0.61481E-02 -0.12615E-01 -0.17718E-01 -0.19154E-01