       #
       # Generated by the Wannier90 code http://www.wannier.org
       # On 23Sep2015 at 21:20:35 
       #
CRYSTAL
PRIMVEC
   3.8425000   0.0000000   0.0000000
   0.0000000   3.8425000   0.0000000
   0.0000000   0.0000000   3.8425000
CONVVEC
   3.8425000   0.0000000   0.0000000
   0.0000000   3.8425000   0.0000000
   0.0000000   0.0000000   3.8425000
PRIMCOORD
     5  1
V       0.0000000   0.0000000   0.0000000
Sr      1.9212500   1.9212500   1.9212500
O       1.9212500   0.0000000   0.0000000
O       0.0000000   1.9212500   0.0000000
O       0.0000000   0.0000000   1.9212500


BEGIN_BLOCK_DATAGRID_3D
3D_field
BEGIN_DATAGRID_3D_UNKNOWN
    40    40    40
   -4.034625   -4.034625   -4.034625
   7.4928749   0.0000000   0.0000000
   0.0000000   7.4928749   0.0000000
   0.0000000   0.0000000   7.4928749
  0.28358E-04 -0.30915E-03 -0.62468E-03 -0.79119E-03 -0.88739E-03 -0.10246E-02
 -0.10964E-02 -0.95722E-03 -0.29325E-03  0.17408E-02  0.56159E-02  0.97927E-02
  0.11368E-01  0.91710E-02  0.50761E-02  0.15705E-02 -0.63494E-03 -0.19281E-02
 -0.24072E-02 -0.21547E-02 -0.16942E-02 -0.14987E-02 -0.16942E-02 -0.21547E-02
 -0.24072E-02 -0.19281E-02 -0.63494E-03  0.15705E-02  0.50761E-02  0.91710E-02
  0.11368E-01  0.97927E-02  0.56159E-02  0.17408E-02 -0.29325E-03 -0.95722E-03
 -0.10964E-02 -0.10246E-02 -0.88739E-03 -0.79119E-03 -0.30915E-03 -0.37530E-03
 -0.33779E-03 -0.16877E-03 -0.48019E-04 -0.22808E-04  0.14952E-03  0.75552E-03
  0.24225E-02  0.62635E-02  0.12203E-01  0.17286E-01  0.17665E-01  0.12809E-01
  0.61041E-02  0.88596E-03 -0.23536E-02 -0.45153E-02 -0.58637E-02 -0.63469E-02
 -0.63463E-02 -0.63014E-02 -0.63463E-02 -0.63469E-02 -0.58637E-02 -0.45153E-02
 -0.23536E-02  0.88596E-03  0.61041E-02  0.12809E-01  0.17665E-01  0.17286E-01
  0.12203E-01  0.62635E-02  0.24225E-02  0.75552E-03  0.14952E-03 -0.22808E-04
 -0.48019E-04 -0.16878E-03 -0.62468E-03 -0.33779E-03  0.11681E-03  0.63182E-03
  0.94301E-03  0.10362E-02  0.12050E-02  0.19198E-02  0.41573E-02  0.90039E-02
  0.15591E-01  0.20141E-01  0.18972E-01  0.12470E-01  0.45478E-02 -0.16405E-02
 -0.58378E-02 -0.88485E-02 -0.10769E-01 -0.11534E-01 -0.11624E-01 -0.11591E-01
 -0.11624E-01 -0.11534E-01 -0.10769E-01 -0.88485E-02 -0.58378E-02 -0.16405E-02
  0.45478E-02  0.12470E-01  0.18972E-01  0.20141E-01  0.15591E-01  0.90039E-02
  0.41573E-02  0.19198E-02  0.12050E-02  0.10362E-02  0.94301E-03  0.63182E-03
 -0.79119E-03 -0.16878E-03  0.63182E-03  0.13348E-02  0.16051E-02  0.15189E-02
  0.14932E-02  0.21238E-02  0.43016E-02  0.85604E-02  0.13553E-01  0.16051E-01
  0.13669E-01  0.72916E-02 -0.16206E-04 -0.60323E-02 -0.10441E-01 -0.13542E-01
 -0.15364E-01 -0.16084E-01 -0.16238E-01 -0.16252E-01 -0.16238E-01 -0.16084E-01
 -0.15364E-01 -0.13542E-01 -0.10441E-01 -0.60323E-02 -0.16208E-04  0.72916E-02
  0.13669E-01  0.16051E-01  0.13553E-01  0.85604E-02  0.43016E-02  0.21238E-02
  0.14933E-02  0.15189E-02  0.16051E-02  0.13348E-02 -0.88739E-03 -0.48019E-04
  0.94301E-03  0.16051E-02  0.16219E-02  0.13046E-02  0.12344E-02  0.18508E-02
  0.34200E-02  0.57884E-02  0.78982E-02  0.80762E-02  0.53396E-02  0.32348E-03
 -0.53238E-02 -0.10293E-01 -0.14189E-01 -0.17129E-01 -0.19303E-01 -0.20873E-01
 -0.21898E-01 -0.22270E-01 -0.21898E-01 -0.20873E-01 -0.19303E-01 -0.17129E-01
 -0.14189E-01 -0.10293E-01 -0.53238E-02  0.32348E-03  0.53396E-02  0.80762E-02
  0.78982E-02  0.57884E-02  0.34200E-02  0.18508E-02  0.12344E-02  0.13047E-02
  0.16219E-02  0.16051E-02 -0.10246E-02 -0.22808E-04  0.10362E-02  0.15189E-02
  0.13046E-02  0.93961E-03  0.94972E-03  0.13710E-02  0.18886E-02  0.21824E-02
  0.20003E-02  0.95077E-03 -0.14083E-02 -0.50223E-02 -0.91760E-02 -0.13175E-01
 -0.16949E-01 -0.20762E-01 -0.24599E-01 -0.28019E-01 -0.30415E-01 -0.31280E-01
 -0.30415E-01 -0.28019E-01 -0.24599E-01 -0.20762E-01 -0.16949E-01 -0.13175E-01
 -0.91760E-02 -0.50223E-02 -0.14083E-02  0.95077E-03  0.20003E-02  0.21824E-02
  0.18886E-02  0.13710E-02  0.94972E-03  0.93961E-03  0.13047E-02  0.15189E-02
 -0.10964E-02  0.14952E-03  0.12050E-02  0.14932E-02  0.12344E-02  0.94972E-03
  0.77165E-03  0.45341E-03 -0.24087E-03 -0.12030E-02 -0.21575E-02 -0.33088E-02
 -0.52993E-02 -0.82573E-02 -0.11642E-01 -0.15262E-01 -0.19545E-01 -0.24621E-01
 -0.30013E-01 -0.35085E-01 -0.38976E-01 -0.40487E-01 -0.38976E-01 -0.35085E-01
 -0.30013E-01 -0.24621E-01 -0.19545E-01 -0.15262E-01 -0.11642E-01 -0.82573E-02
 -0.52993E-02 -0.33088E-02 -0.21575E-02 -0.12030E-02 -0.24087E-03  0.45341E-03
  0.77165E-03  0.94972E-03  0.12344E-02  0.14933E-02 -0.95722E-03  0.75552E-03
  0.19198E-02  0.21238E-02  0.18508E-02  0.13710E-02  0.45341E-03 -0.95199E-03
 -0.24710E-02 -0.36519E-02 -0.44781E-02 -0.56416E-02 -0.78089E-02 -0.10660E-01
 -0.13572E-01 -0.16832E-01 -0.20972E-01 -0.25895E-01 -0.31936E-01 -0.39871E-01
 -0.48000E-01 -0.51626E-01 -0.48000E-01 -0.39871E-01 -0.31936E-01 -0.25895E-01
 -0.20972E-01 -0.16832E-01 -0.13572E-01 -0.10660E-01 -0.78089E-02 -0.56416E-02
 -0.44781E-02 -0.36519E-02 -0.24710E-02 -0.95199E-03  0.45341E-03  0.13710E-02
  0.18508E-02  0.21238E-02 -0.29325E-03  0.24225E-02  0.41573E-02  0.43016E-02
  0.34200E-02  0.18886E-02 -0.24087E-03 -0.24710E-02 -0.41073E-02 -0.50645E-02
 -0.59976E-02 -0.77045E-02 -0.10202E-01 -0.12643E-01 -0.14670E-01 -0.16889E-01
 -0.19514E-01 -0.22967E-01 -0.30416E-01 -0.45017E-01 -0.62229E-01 -0.70194E-01
 -0.62229E-01 -0.45017E-01 -0.30416E-01 -0.22967E-01 -0.19514E-01 -0.16889E-01
 -0.14670E-01 -0.12643E-01 -0.10202E-01 -0.77045E-02 -0.59976E-02 -0.50645E-02
 -0.41073E-02 -0.24710E-02 -0.24087E-03  0.18886E-02  0.34200E-02  0.43016E-02
  0.17408E-02  0.62635E-02  0.90039E-02  0.85604E-02  0.57884E-02  0.21824E-02
 -0.12030E-02 -0.36519E-02 -0.50645E-02 -0.61815E-02 -0.78454E-02 -0.10136E-01
 -0.12300E-01 -0.13626E-01 -0.14388E-01 -0.15108E-01 -0.15481E-01 -0.16918E-01
 -0.25380E-01 -0.45491E-01 -0.69845E-01 -0.81121E-01 -0.69845E-01 -0.45491E-01
 -0.25380E-01 -0.16918E-01 -0.15481E-01 -0.15108E-01 -0.14388E-01 -0.13626E-01
 -0.12300E-01 -0.10136E-01 -0.78454E-02 -0.61815E-02 -0.50645E-02 -0.36519E-02
 -0.12030E-02  0.21824E-02  0.57884E-02  0.85604E-02  0.56159E-02  0.12203E-01
  0.15591E-01  0.13553E-01  0.78982E-02  0.20003E-02 -0.21575E-02 -0.44781E-02
 -0.59976E-02 -0.78454E-02 -0.10217E-01 -0.12355E-01 -0.13531E-01 -0.13827E-01
 -0.13816E-01 -0.13246E-01 -0.11047E-01 -0.86043E-02 -0.11754E-01 -0.24891E-01
 -0.42320E-01 -0.50562E-01 -0.42320E-01 -0.24891E-01 -0.11754E-01 -0.86043E-02
 -0.11047E-01 -0.13246E-01 -0.13816E-01 -0.13827E-01 -0.13531E-01 -0.12355E-01
 -0.10217E-01 -0.78454E-02 -0.59976E-02 -0.44781E-02 -0.21575E-02  0.20003E-02
  0.78982E-02  0.13553E-01  0.97927E-02  0.17286E-01  0.20141E-01  0.16051E-01
  0.80762E-02  0.95077E-03 -0.33088E-02 -0.56416E-02 -0.77045E-02 -0.10136E-01
 -0.12355E-01 -0.13667E-01 -0.14243E-01 -0.14707E-01 -0.14935E-01 -0.13426E-01
 -0.82961E-02  0.47935E-03  0.10257E-01  0.17884E-01  0.22107E-01  0.23370E-01
  0.22107E-01  0.17884E-01  0.10257E-01  0.47935E-03 -0.82961E-02 -0.13426E-01
 -0.14935E-01 -0.14707E-01 -0.14243E-01 -0.13667E-01 -0.12355E-01 -0.10136E-01
 -0.77045E-02 -0.56416E-02 -0.33088E-02  0.95077E-03  0.80762E-02  0.16051E-01
  0.11368E-01  0.17665E-01  0.18972E-01  0.13669E-01  0.53396E-02 -0.14083E-02
 -0.52993E-02 -0.78089E-02 -0.10202E-01 -0.12300E-01 -0.13531E-01 -0.14243E-01
 -0.15404E-01 -0.17141E-01 -0.18036E-01 -0.15798E-01 -0.84109E-02  0.54829E-02
  0.26751E-01  0.53746E-01  0.78522E-01  0.88859E-01  0.78522E-01  0.53746E-01
  0.26751E-01  0.54829E-02 -0.84109E-02 -0.15798E-01 -0.18036E-01 -0.17141E-01
 -0.15404E-01 -0.14243E-01 -0.13531E-01 -0.12300E-01 -0.10202E-01 -0.78089E-02
 -0.52993E-02 -0.14083E-02  0.53396E-02  0.13669E-01  0.91710E-02  0.12809E-01
  0.12470E-01  0.72916E-02  0.32348E-03 -0.50223E-02 -0.82573E-02 -0.10660E-01
 -0.12643E-01 -0.13626E-01 -0.13827E-01 -0.14707E-01 -0.17141E-01 -0.20110E-01
 -0.21500E-01 -0.19370E-01 -0.12276E-01  0.13854E-02  0.23876E-01  0.54755E-01
  0.84643E-01  0.97424E-01  0.84643E-01  0.54755E-01  0.23876E-01  0.13855E-02
 -0.12276E-01 -0.19370E-01 -0.21500E-01 -0.20110E-01 -0.17141E-01 -0.14707E-01
 -0.13827E-01 -0.13626E-01 -0.12643E-01 -0.10660E-01 -0.82573E-02 -0.50223E-02
  0.32348E-03  0.72916E-02  0.50761E-02  0.61041E-02  0.45478E-02 -0.16207E-04
 -0.53238E-02 -0.91760E-02 -0.11642E-01 -0.13572E-01 -0.14670E-01 -0.14388E-01
 -0.13816E-01 -0.14935E-01 -0.18036E-01 -0.21500E-01 -0.23793E-01 -0.23880E-01
 -0.20380E-01 -0.11646E-01  0.39462E-02  0.26129E-01  0.48155E-01  0.57712E-01
  0.48155E-01  0.26129E-01  0.39462E-02 -0.11646E-01 -0.20380E-01 -0.23880E-01
 -0.23793E-01 -0.21500E-01 -0.18036E-01 -0.14935E-01 -0.13816E-01 -0.14388E-01
 -0.14670E-01 -0.13572E-01 -0.11642E-01 -0.91760E-02 -0.53238E-02 -0.16208E-04
  0.15705E-02  0.88596E-03 -0.16405E-02 -0.60323E-02 -0.10293E-01 -0.13175E-01
 -0.15262E-01 -0.16832E-01 -0.16889E-01 -0.15108E-01 -0.13246E-01 -0.13426E-01
 -0.15798E-01 -0.19370E-01 -0.23880E-01 -0.28623E-01 -0.31010E-01 -0.28535E-01
 -0.20604E-01 -0.83676E-02  0.40099E-02  0.94341E-02  0.40099E-02 -0.83676E-02
 -0.20604E-01 -0.28535E-01 -0.31010E-01 -0.28623E-01 -0.23880E-01 -0.19370E-01
 -0.15798E-01 -0.13426E-01 -0.13246E-01 -0.15108E-01 -0.16889E-01 -0.16832E-01
 -0.15262E-01 -0.13175E-01 -0.10293E-01 -0.60323E-02 -0.63494E-03 -0.23536E-02
 -0.58378E-02 -0.10441E-01 -0.14189E-01 -0.16949E-01 -0.19545E-01 -0.20972E-01
 -0.19514E-01 -0.15481E-01 -0.11047E-01 -0.82961E-02 -0.84109E-02 -0.12276E-01
 -0.20380E-01 -0.31010E-01 -0.39933E-01 -0.43658E-01 -0.41923E-01 -0.36606E-01
 -0.30707E-01 -0.28071E-01 -0.30707E-01 -0.36606E-01 -0.41923E-01 -0.43658E-01
 -0.39933E-01 -0.31010E-01 -0.20380E-01 -0.12276E-01 -0.84109E-02 -0.82961E-02
 -0.11047E-01 -0.15481E-01 -0.19514E-01 -0.20972E-01 -0.19545E-01 -0.16949E-01
 -0.14189E-01 -0.10441E-01 -0.19281E-02 -0.45153E-02 -0.88485E-02 -0.13542E-01
 -0.17129E-01 -0.20762E-01 -0.24621E-01 -0.25895E-01 -0.22967E-01 -0.16918E-01
 -0.86043E-02  0.47935E-03  0.54829E-02  0.13854E-02 -0.11646E-01 -0.28535E-01
 -0.43658E-01 -0.53843E-01 -0.58694E-01 -0.59598E-01 -0.58705E-01 -0.58102E-01
 -0.58705E-01 -0.59598E-01 -0.58694E-01 -0.53843E-01 -0.43658E-01 -0.28535E-01
 -0.11646E-01  0.13855E-02  0.54829E-02  0.47935E-03 -0.86043E-02 -0.16918E-01
 -0.22967E-01 -0.25895E-01 -0.24621E-01 -0.20762E-01 -0.17129E-01 -0.13542E-01
 -0.24072E-02 -0.58637E-02 -0.10769E-01 -0.15364E-01 -0.19303E-01 -0.24599E-01
 -0.30013E-01 -0.31936E-01 -0.30416E-01 -0.25380E-01 -0.11754E-01  0.10257E-01
  0.26751E-01  0.23876E-01  0.39462E-02 -0.20604E-01 -0.41923E-01 -0.58694E-01
 -0.70697E-01 -0.77899E-01 -0.81468E-01 -0.82554E-01 -0.81468E-01 -0.77899E-01
 -0.70697E-01 -0.58694E-01 -0.41923E-01 -0.20604E-01  0.39462E-02  0.23876E-01
  0.26751E-01  0.10257E-01 -0.11754E-01 -0.25380E-01 -0.30416E-01 -0.31936E-01
 -0.30013E-01 -0.24599E-01 -0.19303E-01 -0.15364E-01 -0.21547E-02 -0.63469E-02
 -0.11534E-01 -0.16084E-01 -0.20873E-01 -0.28019E-01 -0.35085E-01 -0.39871E-01
 -0.45017E-01 -0.45491E-01 -0.24891E-01  0.17884E-01  0.53746E-01  0.54755E-01
  0.26129E-01 -0.83676E-02 -0.36606E-01 -0.59598E-01 -0.77899E-01 -0.90035E-01
 -0.96562E-01 -0.98657E-01 -0.96562E-01 -0.90035E-01 -0.77899E-01 -0.59598E-01
 -0.36606E-01 -0.83676E-02  0.26129E-01  0.54755E-01  0.53746E-01  0.17884E-01
 -0.24891E-01 -0.45491E-01 -0.45017E-01 -0.39871E-01 -0.35085E-01 -0.28019E-01
 -0.20873E-01 -0.16084E-01 -0.16942E-02 -0.63463E-02 -0.11624E-01 -0.16238E-01
 -0.21898E-01 -0.30415E-01 -0.38976E-01 -0.48000E-01 -0.62229E-01 -0.69845E-01
 -0.42320E-01  0.22107E-01  0.78522E-01  0.84643E-01  0.48155E-01  0.40099E-02
 -0.30707E-01 -0.58705E-01 -0.81468E-01 -0.96562E-01 -0.10442E+00 -0.10686E+00
 -0.10442E+00 -0.96562E-01 -0.81468E-01 -0.58705E-01 -0.30707E-01  0.40099E-02
  0.48155E-01  0.84643E-01  0.78522E-01  0.22107E-01 -0.42320E-01 -0.69845E-01
 -0.62229E-01 -0.48000E-01 -0.38976E-01 -0.30415E-01 -0.21898E-01 -0.16238E-01
 -0.14987E-02 -0.63014E-02 -0.11591E-01 -0.16252E-01 -0.22270E-01 -0.31280E-01
 -0.40487E-01 -0.51626E-01 -0.70194E-01 -0.81121E-01 -0.50562E-01  0.23370E-01
  0.88859E-01  0.97424E-01  0.57712E-01  0.94341E-02 -0.28071E-01 -0.58102E-01
 -0.82554E-01 -0.98657E-01 -0.10686E+00 -0.10935E+00 -0.10686E+00 -0.98657E-01
 -0.82554E-01 -0.58102E-01 -0.28071E-01  0.94341E-02  0.57712E-01  0.97424E-01
  0.88859E-01  0.23370E-01 -0.50562E-01 -0.81121E-01 -0.70194E-01 -0.51626E-01
 -0.40487E-01 -0.31280E-01 -0.22270E-01 -0.16252E-01 -0.16942E-02 -0.63463E-02
 -0.11624E-01 -0.16238E-01 -0.21898E-01 -0.30415E-01 -0.38976E-01 -0.48000E-01
 -0.62229E-01 -0.69845E-01 -0.42320E-01  0.22107E-01  0.78522E-01  0.84643E-01
  0.48155E-01  0.40099E-02 -0.30707E-01 -0.58705E-01 -0.81468E-01 -0.96562E-01
 -0.10442E+00 -0.10686E+00 -0.10442E+00 -0.96562E-01 -0.81468E-01 -0.58705E-01
 -0.30707E-01  0.40099E-02  0.48155E-01  0.84643E-01  0.78522E-01  0.22107E-01
 -0.42320E-01 -0.69845E-01 -0.62229E-01 -0.48000E-01 -0.38976E-01 -0.30415E-01
 -0.21898E-01 -0.16238E-01 -0.21547E-02 -0.63469E-02 -0.11534E-01 -0.16084E-01
 -0.20873E-01 -0.28019E-01 -0.35085E-01 -0.39871E-01 -0.45017E-01 -0.45491E-01
 -0.24891E-01  0.17884E-01  0.53746E-01  0.54755E-01  0.26129E-01 -0.83676E-02
 -0.36606E-01 -0.59598E-01 -0.77899E-01 -0.90035E-01 -0.96562E-01 -0.98657E-01
 -0.96562E-01 -0.90035E-01 -0.77899E-01 -0.59598E-01 -0.36606E-01 -0.83676E-02
  0.26129E-01  0.54755E-01  0.53746E-01  0.17884E-01 -0.24891E-01 -0.45491E-01
 -0.45017E-01 -0.39871E-01 -0.35085E-01 -0.28019E-01 -0.20873E-01 -0.16084E-01
 -0.24072E-02 -0.58637E-02 -0.10769E-01 -0.15364E-01 -0.19303E-01 -0.24599E-01
 -0.30013E-01 -0.31936E-01 -0.30416E-01 -0.25380E-01 -0.11754E-01  0.10257E-01
  0.26751E-01  0.23876E-01  0.39462E-02 -0.20604E-01 -0.41923E-01 -0.58694E-01
 -0.70697E-01 -0.77899E-01 -0.81468E-01 -0.82554E-01 -0.81468E-01 -0.77899E-01
 -0.70697E-01 -0.58694E-01 -0.41923E-01 -0.20604E-01  0.39462E-02  0.23876E-01
  0.26751E-01  0.10257E-01 -0.11754E-01 -0.25380E-01 -0.30416E-01 -0.31936E-01
 -0.30013E-01 -0.24599E-01 -0.19303E-01 -0.15364E-01 -0.19281E-02 -0.45153E-02
 -0.88485E-02 -0.13542E-01 -0.17129E-01 -0.20762E-01 -0.24621E-01 -0.25895E-01
 -0.22967E-01 -0.16918E-01 -0.86043E-02  0.47935E-03  0.54829E-02  0.13855E-02
 -0.11646E-01 -0.28535E-01 -0.43658E-01 -0.53843E-01 -0.58694E-01 -0.59598E-01
 -0.58705E-01 -0.58102E-01 -0.58705E-01 -0.59598E-01 -0.58694E-01 -0.53843E-01
 -0.43658E-01 -0.28535E-01 -0.11646E-01  0.13854E-02  0.54829E-02  0.47935E-03
 -0.86043E-02 -0.16918E-01 -0.22967E-01 -0.25895E-01 -0.24621E-01 -0.20762E-01
 -0.17129E-01 -0.13542E-01 -0.63493E-03 -0.23536E-02 -0.58378E-02 -0.10441E-01
 -0.14189E-01 -0.16949E-01 -0.19545E-01 -0.20972E-01 -0.19514E-01 -0.15481E-01
 -0.11047E-01 -0.82961E-02 -0.84109E-02 -0.12276E-01 -0.20380E-01 -0.31010E-01
 -0.39933E-01 -0.43658E-01 -0.41923E-01 -0.36606E-01 -0.30707E-01 -0.28071E-01
 -0.30707E-01 -0.36606E-01 -0.41923E-01 -0.43658E-01 -0.39933E-01 -0.31010E-01
 -0.20380E-01 -0.12276E-01 -0.84109E-02 -0.82961E-02 -0.11047E-01 -0.15481E-01
 -0.19514E-01 -0.20972E-01 -0.19545E-01 -0.16949E-01 -0.14189E-01 -0.10441E-01
  0.15705E-02  0.88596E-03 -0.16405E-02 -0.60323E-02 -0.10293E-01 -0.13175E-01
 -0.15262E-01 -0.16832E-01 -0.16889E-01 -0.15108E-01 -0.13246E-01 -0.13426E-01
 -0.15798E-01 -0.19370E-01 -0.23880E-01 -0.28623E-01 -0.31010E-01 -0.28535E-01
 -0.20604E-01 -0.83676E-02  0.40099E-02  0.94341E-02  0.40099E-02 -0.83676E-02
 -0.20604E-01 -0.28535E-01 -0.31010E-01 -0.28623E-01 -0.23880E-01 -0.19370E-01
 -0.15798E-01 -0.13426E-01 -0.13246E-01 -0.15108E-01 -0.16889E-01 -0.16832E-01
 -0.15262E-01 -0.13175E-01 -0.10293E-01 -0.60323E-02  0.50761E-02  0.61041E-02
  0.45478E-02 -0.16207E-04 -0.53238E-02 -0.91760E-02 -0.11642E-01 -0.13572E-01
 -0.14670E-01 -0.14388E-01 -0.13816E-01 -0.14935E-01 -0.18036E-01 -0.21500E-01
 -0.23793E-01 -0.23880E-01 -0.20380E-01 -0.11646E-01  0.39462E-02  0.26129E-01
  0.48155E-01  0.57712E-01  0.48155E-01  0.26129E-01  0.39462E-02 -0.11646E-01
 -0.20380E-01 -0.23880E-01 -0.23793E-01 -0.21500E-01 -0.18036E-01 -0.14935E-01
 -0.13816E-01 -0.14388E-01 -0.14670E-01 -0.13572E-01 -0.11642E-01 -0.91760E-02
 -0.53238E-02 -0.16205E-04  0.91710E-02  0.12809E-01  0.12470E-01  0.72916E-02
  0.32348E-03 -0.50223E-02 -0.82573E-02 -0.10660E-01 -0.12643E-01 -0.13626E-01
 -0.13827E-01 -0.14707E-01 -0.17141E-01 -0.20110E-01 -0.21500E-01 -0.19370E-01
 -0.12276E-01  0.13855E-02  0.23876E-01  0.54755E-01  0.84643E-01  0.97424E-01
  0.84643E-01  0.54755E-01  0.23876E-01  0.13854E-02 -0.12276E-01 -0.19370E-01
 -0.21500E-01 -0.20110E-01 -0.17141E-01 -0.14707E-01 -0.13827E-01 -0.13626E-01
 -0.12643E-01 -0.10660E-01 -0.82573E-02 -0.50223E-02  0.32348E-03  0.72916E-02
  0.11368E-01  0.17665E-01  0.18972E-01  0.13669E-01  0.53396E-02 -0.14083E-02
 -0.52993E-02 -0.78089E-02 -0.10202E-01 -0.12300E-01 -0.13531E-01 -0.14243E-01
 -0.15404E-01 -0.17141E-01 -0.18036E-01 -0.15798E-01 -0.84109E-02  0.54829E-02
  0.26751E-01  0.53746E-01  0.78522E-01  0.88859E-01  0.78522E-01  0.53746E-01
  0.26751E-01  0.54829E-02 -0.84109E-02 -0.15798E-01 -0.18036E-01 -0.17141E-01
 -0.15404E-01 -0.14243E-01 -0.13531E-01 -0.12300E-01 -0.10202E-01 -0.78089E-02
 -0.52993E-02 -0.14083E-02  0.53396E-02  0.13669E-01  0.97927E-02  0.17286E-01
  0.20141E-01  0.16051E-01  0.80762E-02  0.95077E-03 -0.33088E-02 -0.56416E-02
 -0.77045E-02 -0.10136E-01 -0.12355E-01 -0.13667E-01 -0.14243E-01 -0.14707E-01
 -0.14935E-01 -0.13426E-01 -0.82961E-02  0.47935E-03  0.10257E-01  0.17884E-01
  0.22107E-01  0.23370E-01  0.22107E-01  0.17884E-01  0.10257E-01  0.47935E-03
 -0.82961E-02 -0.13426E-01 -0.14935E-01 -0.14707E-01 -0.14243E-01 -0.13667E-01
 -0.12355E-01 -0.10136E-01 -0.77045E-02 -0.56416E-02 -0.33088E-02  0.95077E-03
  0.80762E-02  0.16051E-01  0.56159E-02  0.12203E-01  0.15591E-01  0.13553E-01
  0.78982E-02  0.20003E-02 -0.21575E-02 -0.44781E-02 -0.59976E-02 -0.78454E-02
 -0.10217E-01 -0.12355E-01 -0.13531E-01 -0.13827E-01 -0.13816E-01 -0.13246E-01
 -0.11047E-01 -0.86043E-02 -0.11754E-01 -0.24891E-01 -0.42320E-01 -0.50562E-01
 -0.42320E-01 -0.24891E-01 -0.11754E-01 -0.86043E-02 -0.11047E-01 -0.13246E-01
 -0.13816E-01 -0.13827E-01 -0.13531E-01 -0.12355E-01 -0.10217E-01 -0.78454E-02
 -0.59976E-02 -0.44781E-02 -0.21575E-02  0.20003E-02  0.78982E-02  0.13553E-01
  0.17408E-02  0.62635E-02  0.90039E-02  0.85604E-02  0.57884E-02  0.21824E-02
 -0.12030E-02 -0.36519E-02 -0.50645E-02 -0.61815E-02 -0.78454E-02 -0.10136E-01
 -0.12300E-01 -0.13626E-01 -0.14388E-01 -0.15108E-01 -0.15481E-01 -0.16918E-01
 -0.25380E-01 -0.45491E-01 -0.69845E-01 -0.81121E-01 -0.69845E-01 -0.45491E-01
 -0.25380E-01 -0.16918E-01 -0.15481E-01 -0.15108E-01 -0.14388E-01 -0.13626E-01
 -0.12300E-01 -0.10136E-01 -0.78454E-02 -0.61815E-02 -0.50646E-02 -0.36520E-02
 -0.12030E-02  0.21824E-02  0.57884E-02  0.85604E-02 -0.29325E-03  0.24225E-02
  0.41573E-02  0.43016E-02  0.34200E-02  0.18886E-02 -0.24087E-03 -0.24710E-02
 -0.41073E-02 -0.50645E-02 -0.59976E-02 -0.77045E-02 -0.10202E-01 -0.12643E-01
 -0.14670E-01 -0.16889E-01 -0.19514E-01 -0.22967E-01 -0.30416E-01 -0.45017E-01
 -0.62229E-01 -0.70194E-01 -0.62229E-01 -0.45017E-01 -0.30416E-01 -0.22967E-01
 -0.19514E-01 -0.16889E-01 -0.14670E-01 -0.12643E-01 -0.10202E-01 -0.77045E-02
 -0.59976E-02 -0.50646E-02 -0.41073E-02 -0.24710E-02 -0.24088E-03  0.18886E-02
  0.34200E-02  0.43016E-02 -0.95722E-03  0.75552E-03  0.19198E-02  0.21238E-02
  0.18508E-02  0.13710E-02  0.45341E-03 -0.95199E-03 -0.24710E-02 -0.36519E-02
 -0.44781E-02 -0.56416E-02 -0.78089E-02 -0.10660E-01 -0.13572E-01 -0.16832E-01
 -0.20972E-01 -0.25895E-01 -0.31936E-01 -0.39871E-01 -0.48000E-01 -0.51626E-01
 -0.48000E-01 -0.39871E-01 -0.31936E-01 -0.25895E-01 -0.20972E-01 -0.16832E-01
 -0.13572E-01 -0.10660E-01 -0.78089E-02 -0.56416E-02 -0.44781E-02 -0.36520E-02
 -0.24710E-02 -0.95199E-03  0.45340E-03  0.13710E-02  0.18508E-02  0.21238E-02
 -0.10964E-02  0.14952E-03  0.12050E-02  0.14933E-02  0.12344E-02  0.94972E-03
  0.77165E-03  0.45341E-03 -0.24087E-03 -0.12030E-02 -0.21575E-02 -0.33088E-02
 -0.52993E-02 -0.82573E-02 -0.11642E-01 -0.15262E-01 -0.19545E-01 -0.24621E-01
 -0.30013E-01 -0.35085E-01 -0.38976E-01 -0.40487E-01 -0.38976E-01 -0.35085E-01
 -0.30013E-01 -0.24621E-01 -0.19545E-01 -0.15262E-01 -0.11642E-01 -0.82573E-02
 -0.52993E-02 -0.33088E-02 -0.21575E-02 -0.12030E-02 -0.24088E-03  0.45340E-03
  0.77164E-03  0.94971E-03  0.12344E-02  0.14932E-02 -0.10246E-02 -0.22809E-04
  0.10362E-02  0.15189E-02  0.13047E-02  0.93961E-03  0.94972E-03  0.13710E-02
  0.18886E-02  0.21824E-02  0.20003E-02  0.95077E-03 -0.14083E-02 -0.50223E-02
 -0.91760E-02 -0.13175E-01 -0.16949E-01 -0.20762E-01 -0.24599E-01 -0.28019E-01
 -0.30415E-01 -0.31280E-01 -0.30415E-01 -0.28019E-01 -0.24599E-01 -0.20762E-01
 -0.16949E-01 -0.13175E-01 -0.91760E-02 -0.50223E-02 -0.14083E-02  0.95077E-03
  0.20003E-02  0.21824E-02  0.18886E-02  0.13710E-02  0.94971E-03  0.93960E-03
  0.13046E-02  0.15189E-02 -0.88739E-03 -0.48020E-04  0.94301E-03  0.16051E-02
  0.16219E-02  0.13047E-02  0.12344E-02  0.18508E-02  0.34200E-02  0.57884E-02
  0.78982E-02  0.80762E-02  0.53396E-02  0.32348E-03 -0.53238E-02 -0.10293E-01
 -0.14189E-01 -0.17129E-01 -0.19303E-01 -0.20873E-01 -0.21898E-01 -0.22270E-01
 -0.21898E-01 -0.20873E-01 -0.19303E-01 -0.17129E-01 -0.14189E-01 -0.10293E-01
 -0.53238E-02  0.32348E-03  0.53396E-02  0.80762E-02  0.78982E-02  0.57884E-02
  0.34200E-02  0.18508E-02  0.12344E-02  0.13046E-02  0.16219E-02  0.16051E-02
 -0.79119E-03 -0.16878E-03  0.63182E-03  0.13348E-02  0.16051E-02  0.15189E-02
  0.14933E-02  0.21238E-02  0.43016E-02  0.85604E-02  0.13553E-01  0.16051E-01
  0.13669E-01  0.72916E-02 -0.16209E-04 -0.60323E-02 -0.10441E-01 -0.13542E-01
 -0.15364E-01 -0.16084E-01 -0.16238E-01 -0.16252E-01 -0.16238E-01 -0.16084E-01
 -0.15364E-01 -0.13542E-01 -0.10441E-01 -0.60323E-02 -0.16204E-04  0.72916E-02
  0.13669E-01  0.16051E-01  0.13553E-01  0.85604E-02  0.43016E-02  0.21238E-02
  0.14932E-02  0.15189E-02  0.16051E-02  0.13348E-02  0.68227E-03  0.21440E-03
 -0.27872E-03 -0.64864E-03 -0.10484E-02 -0.16571E-02 -0.23213E-02 -0.30363E-02
 -0.40492E-02 -0.47417E-02 -0.35140E-02  0.46756E-05  0.36187E-02  0.48137E-02
  0.35102E-02  0.14069E-02 -0.33512E-03 -0.14857E-02 -0.19017E-02 -0.15914E-02
 -0.10392E-02 -0.79000E-03 -0.10392E-02 -0.15914E-02 -0.19017E-02 -0.14857E-02
 -0.33512E-03  0.14069E-02  0.35102E-02  0.48137E-02  0.36187E-02  0.46776E-05
 -0.35140E-02 -0.47417E-02 -0.40492E-02 -0.30363E-02 -0.23213E-02 -0.16571E-02
 -0.10484E-02 -0.64864E-03  0.21440E-03  0.18626E-04 -0.95864E-04 -0.11068E-03
 -0.29601E-03 -0.71212E-03 -0.10475E-02 -0.12584E-02 -0.13842E-02 -0.46759E-03
  0.27360E-02  0.72557E-02  0.98305E-02  0.84411E-02  0.45054E-02  0.66838E-03
 -0.20144E-02 -0.37717E-02 -0.46750E-02 -0.47269E-02 -0.43853E-02 -0.42031E-02
 -0.43853E-02 -0.47269E-02 -0.46750E-02 -0.37717E-02 -0.20144E-02  0.66838E-03
  0.45054E-02  0.84411E-02  0.98305E-02  0.72557E-02  0.27360E-02 -0.46759E-03
 -0.13842E-02 -0.12584E-02 -0.10475E-02 -0.71212E-03 -0.29601E-03 -0.11068E-03
 -0.27872E-03 -0.95865E-04  0.27083E-03  0.61691E-03  0.59280E-03  0.27748E-03
  0.10182E-03  0.30770E-03  0.12490E-02  0.38475E-02  0.82967E-02  0.12377E-01
  0.12842E-01  0.89605E-02  0.32520E-02 -0.15547E-02 -0.47699E-02 -0.67705E-02
 -0.76274E-02 -0.74443E-02 -0.68616E-02 -0.65805E-02 -0.68615E-02 -0.74443E-02
 -0.76274E-02 -0.67705E-02 -0.47699E-02 -0.15547E-02  0.32520E-02  0.89605E-02
  0.12842E-01  0.12377E-01  0.82967E-02  0.38475E-02  0.12490E-02  0.30770E-03
  0.10182E-03  0.27748E-03  0.59280E-03  0.61691E-03 -0.64864E-03 -0.11068E-03
  0.61691E-03  0.10917E-02  0.10336E-02  0.74632E-03  0.71545E-03  0.12183E-02
  0.26269E-02  0.54011E-02  0.89727E-02  0.11156E-01  0.98538E-02  0.53237E-02
 -0.13380E-03 -0.45668E-02 -0.75242E-02 -0.91659E-02 -0.95452E-02 -0.89755E-02
 -0.81952E-02 -0.78601E-02 -0.81952E-02 -0.89755E-02 -0.95452E-02 -0.91659E-02
 -0.75242E-02 -0.45668E-02 -0.13380E-03  0.53237E-02  0.98538E-02  0.11156E-01
  0.89727E-02  0.54011E-02  0.26269E-02  0.12183E-02  0.71545E-03  0.74632E-03
  0.10336E-02  0.10917E-02 -0.10484E-02 -0.29601E-03  0.59280E-03  0.10336E-02
  0.96161E-03  0.84103E-03  0.99387E-03  0.14498E-02  0.23107E-02  0.37024E-02
  0.51725E-02  0.55348E-02  0.38099E-02  0.27493E-03 -0.37766E-02 -0.72144E-02
 -0.96573E-02 -0.11127E-01 -0.11715E-01 -0.11666E-01 -0.11392E-01 -0.11255E-01
 -0.11392E-01 -0.11666E-01 -0.11715E-01 -0.11127E-01 -0.96573E-02 -0.72144E-02
 -0.37766E-02  0.27493E-03  0.38099E-02  0.55348E-02  0.51725E-02  0.37024E-02
  0.23107E-02  0.14498E-02  0.99387E-03  0.84103E-03  0.96161E-03  0.10336E-02
 -0.16571E-02 -0.71212E-03  0.27748E-03  0.74632E-03  0.84103E-03  0.90886E-03
  0.94237E-03  0.82426E-03  0.64284E-03  0.58835E-03  0.62795E-03  0.26558E-03
 -0.11580E-02 -0.37169E-02 -0.67349E-02 -0.95262E-02 -0.11935E-01 -0.14027E-01
 -0.15675E-01 -0.16684E-01 -0.17103E-01 -0.17194E-01 -0.17103E-01 -0.16684E-01
 -0.15675E-01 -0.14027E-01 -0.11935E-01 -0.95262E-02 -0.67349E-02 -0.37169E-02
 -0.11580E-02  0.26558E-03  0.62795E-03  0.58835E-03  0.64284E-03  0.82426E-03
  0.94237E-03  0.90886E-03  0.84103E-03  0.74632E-03 -0.23213E-02 -0.10475E-02
  0.10182E-03  0.71545E-03  0.99388E-03  0.94237E-03  0.36903E-03 -0.56145E-03
 -0.14377E-02 -0.20048E-02 -0.23336E-02 -0.29395E-02 -0.44397E-02 -0.67656E-02
 -0.92494E-02 -0.11590E-01 -0.13981E-01 -0.16361E-01 -0.18364E-01 -0.19879E-01
 -0.20948E-01 -0.21366E-01 -0.20948E-01 -0.19879E-01 -0.18364E-01 -0.16361E-01
 -0.13981E-01 -0.11590E-01 -0.92494E-02 -0.67656E-02 -0.44397E-02 -0.29395E-02
 -0.23336E-02 -0.20048E-02 -0.14377E-02 -0.56146E-03  0.36903E-03  0.94237E-03
  0.99387E-03  0.71545E-03 -0.30363E-02 -0.12584E-02  0.30770E-03  0.12183E-02
  0.14498E-02  0.82426E-03 -0.56145E-03 -0.20225E-02 -0.30089E-02 -0.36033E-02
 -0.42540E-02 -0.54721E-02 -0.73959E-02 -0.94545E-02 -0.11095E-01 -0.12513E-01
 -0.13899E-01 -0.14968E-01 -0.16181E-01 -0.18801E-01 -0.22407E-01 -0.24199E-01
 -0.22407E-01 -0.18801E-01 -0.16181E-01 -0.14968E-01 -0.13899E-01 -0.12513E-01
 -0.11095E-01 -0.94545E-02 -0.73959E-02 -0.54721E-02 -0.42540E-02 -0.36033E-02
 -0.30089E-02 -0.20225E-02 -0.56146E-03  0.82426E-03  0.14498E-02  0.12183E-02
 -0.40492E-02 -0.13842E-02  0.12490E-02  0.26269E-02  0.23107E-02  0.64284E-03
 -0.14377E-02 -0.30089E-02 -0.39788E-02 -0.49563E-02 -0.64237E-02 -0.83511E-02
 -0.10215E-01 -0.11356E-01 -0.11746E-01 -0.11757E-01 -0.11027E-01 -0.94207E-02
 -0.93474E-02 -0.13897E-01 -0.21372E-01 -0.25159E-01 -0.21372E-01 -0.13897E-01
 -0.93474E-02 -0.94207E-02 -0.11027E-01 -0.11757E-01 -0.11746E-01 -0.11356E-01
 -0.10215E-01 -0.83511E-02 -0.64237E-02 -0.49563E-02 -0.39788E-02 -0.30089E-02
 -0.14377E-02  0.64284E-03  0.23107E-02  0.26269E-02 -0.47417E-02 -0.46759E-03
  0.38475E-02  0.54011E-02  0.37024E-02  0.58835E-03 -0.20048E-02 -0.36033E-02
 -0.49563E-02 -0.67966E-02 -0.90398E-02 -0.11047E-01 -0.12220E-01 -0.12397E-01
 -0.11822E-01 -0.10252E-01 -0.65188E-02 -0.64549E-03  0.40949E-02  0.39832E-02
  0.40370E-04 -0.23302E-02  0.40369E-04  0.39832E-02  0.40949E-02 -0.64549E-03
 -0.65188E-02 -0.10252E-01 -0.11822E-01 -0.12397E-01 -0.12220E-01 -0.11047E-01
 -0.90398E-02 -0.67966E-02 -0.49563E-02 -0.36033E-02 -0.20048E-02  0.58835E-03
  0.37024E-02  0.54011E-02 -0.35140E-02  0.27360E-02  0.82968E-02  0.89727E-02
  0.51725E-02  0.62795E-03 -0.23336E-02 -0.42540E-02 -0.64237E-02 -0.90398E-02
 -0.11385E-01 -0.12901E-01 -0.13632E-01 -0.13779E-01 -0.12930E-01 -0.96171E-02
 -0.19454E-02  0.10954E-01  0.28234E-01  0.47252E-01  0.63008E-01  0.69270E-01
  0.63008E-01  0.47252E-01  0.28234E-01  0.10954E-01 -0.19454E-02 -0.96171E-02
 -0.12930E-01 -0.13779E-01 -0.13632E-01 -0.12901E-01 -0.11385E-01 -0.90398E-02
 -0.64237E-02 -0.42540E-02 -0.23336E-02  0.62795E-03  0.51725E-02  0.89727E-02
  0.46778E-05  0.72557E-02  0.12377E-01  0.11156E-01  0.55348E-02  0.26558E-03
 -0.29395E-02 -0.54721E-02 -0.83511E-02 -0.11047E-01 -0.12901E-01 -0.14165E-01
 -0.15447E-01 -0.16534E-01 -0.15800E-01 -0.10823E-01  0.62421E-03  0.21281E-01
  0.55030E-01  0.10120E+00  0.14552E+00  0.16436E+00  0.14552E+00  0.10120E+00
  0.55030E-01  0.21281E-01  0.62422E-03 -0.10823E-01 -0.15800E-01 -0.16534E-01
 -0.15447E-01 -0.14165E-01 -0.12901E-01 -0.11047E-01 -0.83511E-02 -0.54721E-02
 -0.29395E-02  0.26558E-03  0.55348E-02  0.11156E-01  0.36187E-02  0.98305E-02
  0.12842E-01  0.98538E-02  0.38099E-02 -0.11580E-02 -0.44397E-02 -0.73959E-02
 -0.10215E-01 -0.12220E-01 -0.13632E-01 -0.15447E-01 -0.17968E-01 -0.20056E-01
 -0.19506E-01 -0.14037E-01 -0.16371E-02  0.21734E-01  0.63370E-01  0.12441E+00
  0.18526E+00  0.21151E+00  0.18526E+00  0.12441E+00  0.63370E-01  0.21734E-01
 -0.16371E-02 -0.14037E-01 -0.19506E-01 -0.20056E-01 -0.17968E-01 -0.15447E-01
 -0.13632E-01 -0.12220E-01 -0.10215E-01 -0.73959E-02 -0.44397E-02 -0.11580E-02
  0.38099E-02  0.98538E-02  0.48137E-02  0.84411E-02  0.89605E-02  0.53237E-02
  0.27492E-03 -0.37169E-02 -0.67656E-02 -0.94545E-02 -0.11356E-01 -0.12397E-01
 -0.13779E-01 -0.16534E-01 -0.20056E-01 -0.22737E-01 -0.23105E-01 -0.19770E-01
 -0.10859E-01  0.75766E-02  0.42442E-01  0.95511E-01  0.14963E+00  0.17324E+00
  0.14963E+00  0.95511E-01  0.42442E-01  0.75766E-02 -0.10859E-01 -0.19770E-01
 -0.23105E-01 -0.22737E-01 -0.20056E-01 -0.16534E-01 -0.13779E-01 -0.12397E-01
 -0.11356E-01 -0.94545E-02 -0.67656E-02 -0.37169E-02  0.27493E-03  0.53237E-02
  0.35102E-02  0.45054E-02  0.32520E-02 -0.13380E-03 -0.37766E-02 -0.67349E-02
 -0.92494E-02 -0.11095E-01 -0.11746E-01 -0.11822E-01 -0.12930E-01 -0.15800E-01
 -0.19506E-01 -0.23105E-01 -0.26492E-01 -0.28570E-01 -0.26415E-01 -0.16525E-01
  0.47611E-02  0.37969E-01  0.72334E-01  0.87468E-01  0.72334E-01  0.37969E-01
  0.47611E-02 -0.16525E-01 -0.26415E-01 -0.28570E-01 -0.26492E-01 -0.23105E-01
 -0.19506E-01 -0.15800E-01 -0.12930E-01 -0.11822E-01 -0.11746E-01 -0.11095E-01
 -0.92494E-02 -0.67349E-02 -0.37766E-02 -0.13380E-03  0.14069E-02  0.66838E-03
 -0.15547E-02 -0.45668E-02 -0.72144E-02 -0.95262E-02 -0.11590E-01 -0.12513E-01
 -0.11757E-01 -0.10252E-01 -0.96171E-02 -0.10823E-01 -0.14037E-01 -0.19770E-01