       #
       # Generated by the Wannier90 code http://www.wannier.org
       # On 23Sep2015 at 21:20:35 
       #
CRYSTAL
PRIMVEC
   3.8425000   0.0000000   0.0000000
   0.0000000   3.8425000   0.0000000
   0.0000000   0.0000000   3.8425000
CONVVEC
   3.8425000   0.0000000   0.0000000
   0.0000000   3.8425000   0.0000000
   0.0000000   0.0000000   3.8425000
PRIMCOORD
     5  1
V       0.0000000   0.0000000   0.0000000
Sr      1.9212500   1.9212500   1.9212500
O       1.9212500   0.0000000   0.0000000
O       0.0000000   1.9212500   0.0000000
O       0.0000000   0.0000000   1.9212500


BEGIN_BLOCK_DATAGRID_3D
3D_field
BEGIN_DATAGRID_3D_UNKNOWN
    40    40    40
   -4.034625   -4.034625   -4.034625
   7.4928749   0.0000000   0.0000000
   0.0000000   7.4928749   0.0000000
   0.0000000   0.0000000   7.4928749
 -0.27091E-03  0.11747E-03  0.67147E-03  0.14259E-02  0.20821E-02  0.21278E-02
  0.15025E-02  0.95972E-03  0.20985E-02  0.67732E-02  0.14832E-01  0.22185E-01
  0.23614E-01  0.18523E-01  0.11569E-01  0.70639E-02  0.53187E-02  0.46465E-02
  0.40105E-02  0.30860E-02  0.17171E-02  0.20773E-08 -0.17171E-02 -0.30860E-02
 -0.40105E-02 -0.46465E-02 -0.53187E-02 -0.70639E-02 -0.11569E-01 -0.18523E-01
 -0.23614E-01 -0.22185E-01 -0.14832E-01 -0.67732E-02 -0.20985E-02 -0.95971E-03
 -0.15025E-02 -0.21278E-02 -0.20821E-02 -0.14259E-02  0.11748E-03 -0.21385E-03
 -0.24090E-03  0.27568E-03  0.64785E-03 -0.72711E-04 -0.20536E-02 -0.50171E-02
 -0.87041E-02 -0.11716E-01 -0.11377E-01 -0.69431E-02 -0.15250E-02  0.13746E-02
  0.16558E-02  0.12672E-02  0.11461E-02  0.10832E-02  0.90896E-03  0.64634E-03
  0.32664E-03  0.71920E-09 -0.32664E-03 -0.64634E-03 -0.90896E-03 -0.10832E-02
 -0.11461E-02 -0.12672E-02 -0.16558E-02 -0.13746E-02  0.15250E-02  0.69431E-02
  0.11377E-01  0.11716E-01  0.87041E-02  0.50171E-02  0.20536E-02  0.72719E-04
 -0.64784E-03 -0.27566E-03  0.67148E-03 -0.24089E-03 -0.60575E-03 -0.33974E-03
 -0.45192E-03 -0.19420E-02 -0.48820E-02 -0.94841E-02 -0.16920E-01 -0.26667E-01
 -0.33958E-01 -0.33463E-01 -0.25461E-01 -0.15434E-01 -0.80766E-02 -0.42639E-02
 -0.27765E-02 -0.23286E-02 -0.21055E-02 -0.17211E-02 -0.10118E-02  0.19446E-09
  0.10118E-02  0.17211E-02  0.21055E-02  0.23286E-02  0.27765E-02  0.42639E-02
  0.80766E-02  0.15434E-01  0.25461E-01  0.33463E-01  0.33958E-01  0.26667E-01
  0.16920E-01  0.94841E-02  0.48820E-02  0.19420E-02  0.45193E-03  0.33975E-03
  0.14259E-02  0.27568E-03 -0.33973E-03 -0.56728E-03 -0.13062E-02 -0.32390E-02
 -0.63096E-02 -0.10804E-01 -0.18276E-01 -0.28988E-01 -0.38471E-01 -0.40236E-01
 -0.32896E-01 -0.21663E-01 -0.12475E-01 -0.73629E-02 -0.52666E-02 -0.45447E-02
 -0.40791E-02 -0.32872E-02 -0.18992E-02  0.11535E-08  0.18992E-02  0.32872E-02
  0.40791E-02  0.45447E-02  0.52666E-02  0.73629E-02  0.12475E-01  0.21663E-01
  0.32896E-01  0.40236E-01  0.38471E-01  0.28988E-01  0.18276E-01  0.10804E-01
  0.63096E-02  0.32390E-02  0.13062E-02  0.56729E-03  0.20821E-02  0.64786E-03
 -0.45192E-03 -0.13062E-02 -0.23246E-02 -0.38885E-02 -0.61576E-02 -0.93115E-02
 -0.14210E-01 -0.21284E-01 -0.27967E-01 -0.29750E-01 -0.25207E-01 -0.17702E-01
 -0.11374E-01 -0.76747E-02 -0.60017E-02 -0.53804E-02 -0.49754E-02 -0.41069E-02
 -0.23962E-02  0.31106E-08  0.23962E-02  0.41069E-02  0.49754E-02  0.53804E-02
  0.60016E-02  0.76747E-02  0.11374E-01  0.17702E-01  0.25207E-01  0.29750E-01
  0.27967E-01  0.21284E-01  0.14210E-01  0.93115E-02  0.61576E-02  0.38885E-02
  0.23246E-02  0.13062E-02  0.21278E-02 -0.72702E-04 -0.19420E-02 -0.32390E-02
 -0.38885E-02 -0.42040E-02 -0.48826E-02 -0.62794E-02 -0.84583E-02 -0.11479E-01
 -0.14423E-01 -0.15328E-01 -0.13438E-01 -0.10236E-01 -0.75213E-02 -0.59048E-02
 -0.52897E-02 -0.53516E-02 -0.54220E-02 -0.47090E-02 -0.28037E-02  0.42336E-08
  0.28037E-02  0.47091E-02  0.54220E-02  0.53516E-02  0.52897E-02  0.59048E-02
  0.75213E-02  0.10236E-01  0.13438E-01  0.15328E-01  0.14423E-01  0.11479E-01
  0.84583E-02  0.62794E-02  0.48827E-02  0.42040E-02  0.38885E-02  0.32390E-02
  0.15025E-02 -0.20536E-02 -0.48820E-02 -0.63096E-02 -0.61576E-02 -0.48826E-02
 -0.35462E-02 -0.28855E-02 -0.28734E-02 -0.33018E-02 -0.39131E-02 -0.41873E-02
 -0.38450E-02 -0.32131E-02 -0.28002E-02 -0.29909E-02 -0.39442E-02 -0.52816E-02
 -0.61367E-02 -0.56676E-02 -0.34782E-02  0.40012E-08  0.34782E-02  0.56676E-02
  0.61367E-02  0.52816E-02  0.39442E-02  0.29909E-02  0.28002E-02  0.32131E-02
  0.38450E-02  0.41873E-02  0.39131E-02  0.33018E-02  0.28734E-02  0.28855E-02
  0.35462E-02  0.48827E-02  0.61576E-02  0.63096E-02  0.95973E-03 -0.50171E-02
 -0.94841E-02 -0.10804E-01 -0.93115E-02 -0.62794E-02 -0.28855E-02  0.46907E-04
  0.21334E-02  0.33968E-02  0.39856E-02  0.39757E-02  0.35019E-02  0.27937E-02
  0.17449E-02 -0.15031E-03 -0.29332E-02 -0.57863E-02 -0.77282E-02 -0.78260E-02
 -0.51326E-02  0.64244E-08  0.51326E-02  0.78260E-02  0.77282E-02  0.57863E-02
  0.29332E-02  0.15031E-03 -0.17449E-02 -0.27937E-02 -0.35019E-02 -0.39757E-02
 -0.39856E-02 -0.33968E-02 -0.21334E-02 -0.46896E-04  0.28855E-02  0.62794E-02
  0.93115E-02  0.10804E-01  0.20985E-02 -0.87041E-02 -0.16920E-01 -0.18276E-01
 -0.14210E-01 -0.84583E-02 -0.28734E-02  0.21334E-02  0.60341E-02  0.85434E-02
  0.98462E-02  0.99711E-02  0.89935E-02  0.73567E-02  0.50606E-02  0.15916E-02
 -0.28046E-02 -0.72384E-02 -0.11084E-01 -0.12679E-01 -0.90027E-02  0.15329E-07
  0.90027E-02  0.12679E-01  0.11084E-01  0.72385E-02  0.28046E-02 -0.15916E-02
 -0.50606E-02 -0.73567E-02 -0.89935E-02 -0.99711E-02 -0.98462E-02 -0.85434E-02
 -0.60341E-02 -0.21334E-02  0.28734E-02  0.84583E-02  0.14210E-01  0.18276E-01
  0.67732E-02 -0.11716E-01 -0.26667E-01 -0.28988E-01 -0.21284E-01 -0.11479E-01
 -0.33018E-02  0.33968E-02  0.85434E-02  0.11808E-01  0.13495E-01  0.13718E-01
  0.12478E-01  0.10195E-01  0.68810E-02  0.21730E-02 -0.35020E-02 -0.98173E-02
 -0.16786E-01 -0.20947E-01 -0.15553E-01  0.24589E-07  0.15553E-01  0.20947E-01
  0.16786E-01  0.98173E-02  0.35020E-02 -0.21730E-02 -0.68810E-02 -0.10195E-01
 -0.12478E-01 -0.13718E-01 -0.13495E-01 -0.11808E-01 -0.85434E-02 -0.33968E-02
  0.33018E-02  0.11479E-01  0.21284E-01  0.28988E-01  0.14832E-01 -0.11377E-01
 -0.33958E-01 -0.38471E-01 -0.27967E-01 -0.14423E-01 -0.39131E-02  0.39856E-02
  0.98462E-02  0.13495E-01  0.15353E-01  0.15639E-01  0.14303E-01  0.11661E-01
  0.76751E-02  0.21272E-02 -0.45470E-02 -0.12799E-01 -0.23141E-01 -0.29929E-01
 -0.22547E-01  0.20758E-07  0.22547E-01  0.29929E-01  0.23141E-01  0.12799E-01
  0.45470E-02 -0.21272E-02 -0.76751E-02 -0.11661E-01 -0.14303E-01 -0.15639E-01
 -0.15353E-01 -0.13495E-01 -0.98462E-02 -0.39856E-02  0.39131E-02  0.14423E-01
  0.27967E-01  0.38470E-01  0.22185E-01 -0.69431E-02 -0.33463E-01 -0.40236E-01
 -0.29750E-01 -0.15328E-01 -0.41874E-02  0.39757E-02  0.99711E-02  0.13718E-01
  0.15639E-01  0.15934E-01  0.14538E-01  0.11752E-01  0.75282E-02  0.17042E-02
 -0.53272E-02 -0.14406E-01 -0.26231E-01 -0.34122E-01 -0.25753E-01  0.83430E-09
  0.25753E-01  0.34122E-01  0.26231E-01  0.14406E-01  0.53272E-02 -0.17042E-02
 -0.75282E-02 -0.11752E-01 -0.14538E-01 -0.15934E-01 -0.15639E-01 -0.13718E-01
 -0.99711E-02 -0.39757E-02  0.41874E-02  0.15328E-01  0.29750E-01  0.40236E-01
  0.23614E-01 -0.15250E-02 -0.25461E-01 -0.32896E-01 -0.25207E-01 -0.13438E-01
 -0.38450E-02  0.35019E-02  0.89935E-02  0.12478E-01  0.14303E-01  0.14538E-01
  0.13092E-01  0.10351E-01  0.63525E-02  0.93620E-03 -0.54737E-02 -0.13459E-01
 -0.23648E-01 -0.30344E-01 -0.22801E-01 -0.19769E-07  0.22801E-01  0.30344E-01
  0.23648E-01  0.13459E-01  0.54737E-02 -0.93620E-03 -0.63525E-02 -0.10351E-01
 -0.13092E-01 -0.14538E-01 -0.14303E-01 -0.12478E-01 -0.89934E-02 -0.35019E-02
  0.38450E-02  0.13438E-01  0.25207E-01  0.32896E-01  0.18523E-01  0.13746E-02
 -0.15434E-01 -0.21663E-01 -0.17702E-01 -0.10236E-01 -0.32131E-02  0.27937E-02
  0.73567E-02  0.10195E-01  0.11661E-01  0.11752E-01  0.10351E-01  0.78927E-02
  0.45172E-02  0.59164E-04 -0.50138E-02 -0.10655E-01 -0.17196E-01 -0.21181E-01
 -0.15681E-01 -0.24528E-07  0.15681E-01  0.21181E-01  0.17196E-01  0.10655E-01
  0.50138E-02 -0.59161E-04 -0.45172E-02 -0.78927E-02 -0.10351E-01 -0.11752E-01
 -0.11661E-01 -0.10195E-01 -0.73567E-02 -0.27937E-02  0.32131E-02  0.10236E-01
  0.17702E-01  0.21663E-01  0.11569E-01  0.16558E-02 -0.80766E-02 -0.12475E-01
 -0.11374E-01 -0.75213E-02 -0.28002E-02  0.17449E-02  0.50606E-02  0.68810E-02
  0.76751E-02  0.75282E-02  0.63525E-02  0.45172E-02  0.22014E-02 -0.79415E-03
 -0.41762E-02 -0.74875E-02 -0.10603E-01 -0.11995E-01 -0.85356E-02 -0.15254E-07
  0.85356E-02  0.11995E-01  0.10603E-01  0.74875E-02  0.41762E-02  0.79415E-03
 -0.22014E-02 -0.45172E-02 -0.63525E-02 -0.75282E-02 -0.76751E-02 -0.68810E-02
 -0.50606E-02 -0.17449E-02  0.28002E-02  0.75213E-02  0.11374E-01  0.12475E-01
  0.70639E-02  0.12672E-02 -0.42639E-02 -0.73629E-02 -0.76747E-02 -0.59048E-02
 -0.29909E-02 -0.15032E-03  0.15916E-02  0.21730E-02  0.21272E-02  0.17042E-02
  0.93620E-03  0.59162E-04 -0.79415E-03 -0.18674E-02 -0.32765E-02 -0.47128E-02
 -0.57338E-02 -0.56835E-02 -0.37222E-02 -0.61371E-08  0.37222E-02  0.56835E-02
  0.57338E-02  0.47128E-02  0.32765E-02  0.18674E-02  0.79415E-03 -0.59156E-04
 -0.93619E-03 -0.17042E-02 -0.21272E-02 -0.21730E-02 -0.15916E-02  0.15033E-03
  0.29909E-02  0.59048E-02  0.76747E-02  0.73629E-02  0.53187E-02  0.11462E-02
 -0.27765E-02 -0.52666E-02 -0.60017E-02 -0.52897E-02 -0.39442E-02 -0.29332E-02
 -0.28046E-02 -0.35020E-02 -0.45470E-02 -0.53272E-02 -0.54737E-02 -0.50138E-02
 -0.41762E-02 -0.32765E-02 -0.26596E-02 -0.23920E-02 -0.21452E-02 -0.16138E-02
 -0.83939E-03 -0.37804E-08  0.83938E-03  0.16138E-02  0.21452E-02  0.23920E-02
  0.26596E-02  0.32765E-02  0.41762E-02  0.50138E-02  0.54737E-02  0.53272E-02
  0.45470E-02  0.35020E-02  0.28046E-02  0.29332E-02  0.39442E-02  0.52897E-02
  0.60017E-02  0.52666E-02  0.46465E-02  0.10832E-02 -0.23285E-02 -0.45447E-02
 -0.53804E-02 -0.53516E-02 -0.52816E-02 -0.57863E-02 -0.72385E-02 -0.98173E-02
 -0.12799E-01 -0.14406E-01 -0.13459E-01 -0.10655E-01 -0.74875E-02 -0.47128E-02
 -0.23920E-02 -0.51062E-03  0.88321E-03  0.15805E-02  0.12422E-02 -0.28189E-08
 -0.12422E-02 -0.15805E-02 -0.88321E-03  0.51062E-03  0.23920E-02  0.47128E-02
  0.74875E-02  0.10655E-01  0.13459E-01  0.14406E-01  0.12799E-01  0.98173E-02
  0.72385E-02  0.57863E-02  0.52816E-02  0.53516E-02  0.53804E-02  0.45447E-02
  0.40106E-02  0.90896E-03 -0.21055E-02 -0.40791E-02 -0.49754E-02 -0.54220E-02
 -0.61367E-02 -0.77282E-02 -0.11084E-01 -0.16786E-01 -0.23141E-01 -0.26231E-01
 -0.23648E-01 -0.17196E-01 -0.10603E-01 -0.57338E-02 -0.21452E-02  0.88321E-03
  0.31605E-02  0.39249E-02  0.26999E-02  0.16402E-08 -0.26999E-02 -0.39249E-02
 -0.31605E-02 -0.88321E-03  0.21452E-02  0.57338E-02  0.10603E-01  0.17196E-01
  0.23648E-01  0.26231E-01  0.23141E-01  0.16786E-01  0.11084E-01  0.77282E-02
  0.61367E-02  0.54220E-02  0.49754E-02  0.40791E-02  0.30860E-02  0.64635E-03
 -0.17211E-02 -0.32872E-02 -0.41069E-02 -0.47090E-02 -0.56676E-02 -0.78260E-02
 -0.12679E-01 -0.20947E-01 -0.29929E-01 -0.34122E-01 -0.30344E-01 -0.21181E-01
 -0.11995E-01 -0.56835E-02 -0.16138E-02  0.15805E-02  0.39249E-02  0.45445E-02
  0.30124E-02  0.68122E-08 -0.30124E-02 -0.45445E-02 -0.39249E-02 -0.15805E-02
  0.16138E-02  0.56835E-02  0.11995E-01  0.21181E-01  0.30344E-01  0.34122E-01
  0.29929E-01  0.20947E-01  0.12679E-01  0.78260E-02  0.56676E-02  0.47091E-02
  0.41069E-02  0.32872E-02  0.17171E-02  0.32665E-03 -0.10118E-02 -0.18992E-02
 -0.23962E-02 -0.28037E-02 -0.34782E-02 -0.51326E-02 -0.90027E-02 -0.15553E-01
 -0.22547E-01 -0.25753E-01 -0.22801E-01 -0.15681E-01 -0.85356E-02 -0.37222E-02
 -0.83939E-03  0.12422E-02  0.26999E-02  0.30124E-02  0.19566E-02  0.77934E-08
 -0.19566E-02 -0.30124E-02 -0.26999E-02 -0.12422E-02  0.83938E-03  0.37222E-02
  0.85356E-02  0.15681E-01  0.22801E-01  0.25753E-01  0.22547E-01  0.15553E-01
  0.90027E-02  0.51326E-02  0.34782E-02  0.28037E-02  0.23962E-02  0.18992E-02
  0.36016E-08  0.21377E-08  0.14549E-08  0.25255E-08  0.45643E-08  0.55564E-08
  0.52540E-08  0.74861E-08  0.15250E-07  0.22619E-07  0.18091E-07 -0.68727E-10
 -0.18058E-07 -0.21927E-07 -0.13683E-07 -0.56353E-08 -0.33429E-08 -0.20810E-08
  0.23357E-08  0.72197E-08  0.79521E-08  0.41746E-08 -0.88356E-10 -0.60054E-09
  0.26132E-08  0.51222E-08  0.46400E-08  0.62053E-08  0.15081E-07  0.24804E-07
  0.21116E-07  0.12828E-08 -0.18985E-07 -0.23817E-07 -0.15209E-07 -0.62454E-08
 -0.30982E-08 -0.18615E-08  0.14094E-08  0.57208E-08 -0.17171E-02 -0.32664E-03
  0.10118E-02  0.18992E-02  0.23962E-02  0.28037E-02  0.34782E-02  0.51326E-02
  0.90027E-02  0.15553E-01  0.22547E-01  0.25753E-01  0.22801E-01  0.15681E-01
  0.85356E-02  0.37222E-02  0.83938E-03 -0.12422E-02 -0.26999E-02 -0.30124E-02
 -0.19566E-02 -0.58705E-10  0.19566E-02  0.30124E-02  0.26999E-02  0.12422E-02
 -0.83938E-03 -0.37222E-02 -0.85355E-02 -0.15681E-01 -0.22801E-01 -0.25753E-01
 -0.22547E-01 -0.15553E-01 -0.90027E-02 -0.51326E-02 -0.34782E-02 -0.28037E-02
 -0.23962E-02 -0.18992E-02 -0.30860E-02 -0.64635E-03  0.17211E-02  0.32872E-02
  0.41069E-02  0.47091E-02  0.56676E-02  0.78260E-02  0.12679E-01  0.20947E-01
  0.29929E-01  0.34122E-01  0.30344E-01  0.21181E-01  0.11995E-01  0.56835E-02
  0.16138E-02 -0.15805E-02 -0.39249E-02 -0.45445E-02 -0.30124E-02 -0.76736E-09
  0.30124E-02  0.45445E-02  0.39249E-02  0.15805E-02 -0.16138E-02 -0.56835E-02
 -0.11995E-01 -0.21181E-01 -0.30344E-01 -0.34122E-01 -0.29929E-01 -0.20947E-01
 -0.12679E-01 -0.78260E-02 -0.56676E-02 -0.47091E-02 -0.41069E-02 -0.32872E-02
 -0.40106E-02 -0.90896E-03  0.21055E-02  0.40791E-02  0.49754E-02  0.54220E-02
  0.61367E-02  0.77282E-02  0.11084E-01  0.16786E-01  0.23141E-01  0.26231E-01
  0.23648E-01  0.17196E-01  0.10603E-01  0.57338E-02  0.21452E-02 -0.88321E-03
 -0.31605E-02 -0.39249E-02 -0.26999E-02  0.21371E-08  0.26999E-02  0.39249E-02
  0.31605E-02  0.88322E-03 -0.21452E-02 -0.57338E-02 -0.10603E-01 -0.17196E-01
 -0.23648E-01 -0.26231E-01 -0.23141E-01 -0.16786E-01 -0.11084E-01 -0.77282E-02
 -0.61367E-02 -0.54220E-02 -0.49754E-02 -0.40791E-02 -0.46465E-02 -0.10832E-02
  0.23285E-02  0.45447E-02  0.53804E-02  0.53516E-02  0.52816E-02  0.57863E-02
  0.72385E-02  0.98173E-02  0.12799E-01  0.14406E-01  0.13459E-01  0.10655E-01
  0.74875E-02  0.47128E-02  0.23920E-02  0.51062E-03 -0.88321E-03 -0.15805E-02
 -0.12422E-02  0.46104E-08  0.12422E-02  0.15805E-02  0.88322E-03 -0.51061E-03
 -0.23920E-02 -0.47128E-02 -0.74875E-02 -0.10655E-01 -0.13459E-01 -0.14406E-01
 -0.12799E-01 -0.98173E-02 -0.72385E-02 -0.57863E-02 -0.52816E-02 -0.53516E-02
 -0.53804E-02 -0.45447E-02 -0.53187E-02 -0.11462E-02  0.27765E-02  0.52666E-02
  0.60017E-02  0.52897E-02  0.39442E-02  0.29332E-02  0.28046E-02  0.35020E-02
  0.45470E-02  0.53272E-02  0.54737E-02  0.50138E-02  0.41762E-02  0.32765E-02
  0.26596E-02  0.23920E-02  0.21452E-02  0.16138E-02  0.83939E-03  0.44671E-08
 -0.83938E-03 -0.16138E-02 -0.21452E-02 -0.23920E-02 -0.26596E-02 -0.32765E-02
 -0.41762E-02 -0.50138E-02 -0.54737E-02 -0.53272E-02 -0.45470E-02 -0.35020E-02
 -0.28046E-02 -0.29332E-02 -0.39442E-02 -0.52897E-02 -0.60017E-02 -0.52666E-02
 -0.70640E-02 -0.12672E-02  0.42638E-02  0.73628E-02  0.76747E-02  0.59048E-02
  0.29909E-02  0.15032E-03 -0.15916E-02 -0.21730E-02 -0.21272E-02 -0.17042E-02
 -0.93620E-03 -0.59160E-04  0.79415E-03  0.18674E-02  0.32765E-02  0.47128E-02
  0.57338E-02  0.56835E-02  0.37222E-02  0.60249E-08 -0.37222E-02 -0.56835E-02
 -0.57338E-02 -0.47128E-02 -0.32765E-02 -0.18674E-02 -0.79415E-03  0.59167E-04
  0.93620E-03  0.17042E-02  0.21272E-02  0.21730E-02  0.15916E-02 -0.15032E-03
 -0.29909E-02 -0.59048E-02 -0.76747E-02 -0.73629E-02 -0.11569E-01 -0.16558E-02
  0.80766E-02  0.12475E-01  0.11374E-01  0.75213E-02  0.28002E-02 -0.17449E-02
 -0.50606E-02 -0.68810E-02 -0.76751E-02 -0.75282E-02 -0.63525E-02 -0.45172E-02
 -0.22014E-02  0.79415E-03  0.41762E-02  0.74875E-02  0.10603E-01  0.11995E-01
  0.85356E-02  0.13806E-07 -0.85356E-02 -0.11995E-01 -0.10603E-01 -0.74875E-02
 -0.41762E-02 -0.79414E-03  0.22014E-02  0.45172E-02  0.63525E-02  0.75283E-02
  0.76751E-02  0.68810E-02  0.50606E-02  0.17449E-02 -0.28002E-02 -0.75213E-02
 -0.11374E-01 -0.12475E-01 -0.18523E-01 -0.13746E-02  0.15434E-01  0.21663E-01
  0.17702E-01  0.10236E-01  0.32131E-02 -0.27937E-02 -0.73567E-02 -0.10195E-01
 -0.11661E-01 -0.11752E-01 -0.10351E-01 -0.78927E-02 -0.45172E-02 -0.59157E-04
  0.50138E-02  0.10655E-01  0.17196E-01  0.21181E-01  0.15681E-01  0.22114E-07
 -0.15681E-01 -0.21181E-01 -0.17196E-01 -0.10655E-01 -0.50138E-02  0.59168E-04
  0.45172E-02  0.78927E-02  0.10351E-01  0.11752E-01  0.11661E-01  0.10195E-01
  0.73567E-02  0.27937E-02 -0.32131E-02 -0.10236E-01 -0.17702E-01 -0.21663E-01
 -0.23614E-01  0.15250E-02  0.25461E-01  0.32896E-01  0.25207E-01  0.13438E-01
  0.38450E-02 -0.35019E-02 -0.89935E-02 -0.12478E-01 -0.14303E-01 -0.14538E-01
 -0.13092E-01 -0.10351E-01 -0.63525E-02 -0.93619E-03  0.54737E-02  0.13459E-01
  0.23648E-01  0.30344E-01  0.22801E-01  0.18495E-07 -0.22801E-01 -0.30344E-01
 -0.23648E-01 -0.13459E-01 -0.54737E-02  0.93621E-03  0.63526E-02  0.10351E-01
  0.13092E-01  0.14538E-01  0.14303E-01  0.12478E-01  0.89935E-02  0.35019E-02
 -0.38450E-02 -0.13438E-01 -0.25207E-01 -0.32896E-01 -0.22185E-01  0.69431E-02
  0.33463E-01  0.40236E-01  0.29750E-01  0.15328E-01  0.41874E-02 -0.39757E-02
 -0.99711E-02 -0.13718E-01 -0.15639E-01 -0.15934E-01 -0.14538E-01 -0.11752E-01
 -0.75282E-02 -0.17042E-02  0.53272E-02  0.14406E-01  0.26231E-01  0.34122E-01
  0.25753E-01  0.52200E-09 -0.25753E-01 -0.34122E-01 -0.26231E-01 -0.14406E-01
 -0.53272E-02  0.17042E-02  0.75283E-02  0.11752E-01  0.14538E-01  0.15934E-01
  0.15639E-01  0.13718E-01  0.99711E-02  0.39757E-02 -0.41874E-02 -0.15328E-01
 -0.29750E-01 -0.40236E-01 -0.14832E-01  0.11377E-01  0.33958E-01  0.38471E-01
  0.27967E-01  0.14423E-01  0.39131E-02 -0.39856E-02 -0.98462E-02 -0.13495E-01
 -0.15353E-01 -0.15639E-01 -0.14303E-01 -0.11661E-01 -0.76751E-02 -0.21272E-02
  0.45470E-02  0.12799E-01  0.23141E-01  0.29929E-01  0.22547E-01 -0.18036E-07
 -0.22547E-01 -0.29929E-01 -0.23141E-01 -0.12799E-01 -0.45470E-02  0.21272E-02
  0.76751E-02  0.11661E-01  0.14303E-01  0.15639E-01  0.15353E-01  0.13495E-01
  0.98462E-02  0.39856E-02 -0.39131E-02 -0.14423E-01 -0.27967E-01 -0.38470E-01
 -0.67732E-02  0.11716E-01  0.26667E-01  0.28988E-01  0.21284E-01  0.11479E-01
  0.33018E-02 -0.33968E-02 -0.85434E-02 -0.11808E-01 -0.13495E-01 -0.13718E-01
 -0.12478E-01 -0.10195E-01 -0.68810E-02 -0.21730E-02  0.35020E-02  0.98173E-02
  0.16786E-01  0.20947E-01  0.15553E-01 -0.22929E-07 -0.15553E-01 -0.20947E-01
 -0.16786E-01 -0.98173E-02 -0.35020E-02  0.21730E-02  0.68810E-02  0.10195E-01
  0.12478E-01  0.13718E-01  0.13495E-01  0.11808E-01  0.85434E-02  0.33968E-02
 -0.33018E-02 -0.11479E-01 -0.21284E-01 -0.28988E-01 -0.20985E-02  0.87041E-02
  0.16920E-01  0.18276E-01  0.14210E-01  0.84583E-02  0.28734E-02 -0.21334E-02
 -0.60341E-02 -0.85434E-02 -0.98462E-02 -0.99711E-02 -0.89935E-02 -0.73567E-02
 -0.50606E-02 -0.15916E-02  0.28046E-02  0.72385E-02  0.11084E-01  0.12679E-01
  0.90027E-02 -0.15483E-07 -0.90027E-02 -0.12679E-01 -0.11084E-01 -0.72385E-02
 -0.28046E-02  0.15917E-02  0.50606E-02  0.73567E-02  0.89935E-02  0.99711E-02
  0.98462E-02  0.85434E-02  0.60341E-02  0.21334E-02 -0.28734E-02 -0.84583E-02
 -0.14210E-01 -0.18276E-01 -0.95972E-03  0.50171E-02  0.94841E-02  0.10804E-01
  0.93115E-02  0.62794E-02  0.28855E-02 -0.46896E-04 -0.21334E-02 -0.33968E-02
 -0.39856E-02 -0.39757E-02 -0.35019E-02 -0.27937E-02 -0.17449E-02  0.15032E-03
  0.29332E-02  0.57863E-02  0.77282E-02  0.78260E-02  0.51326E-02 -0.72581E-08
 -0.51326E-02 -0.78260E-02 -0.77282E-02 -0.57863E-02 -0.29332E-02 -0.15031E-03
  0.17449E-02  0.27937E-02  0.35019E-02  0.39757E-02  0.39856E-02  0.33968E-02
  0.21334E-02  0.46895E-04 -0.28855E-02 -0.62794E-02 -0.93115E-02 -0.10804E-01
 -0.15025E-02  0.20536E-02  0.48820E-02  0.63096E-02  0.61576E-02  0.48827E-02
  0.35462E-02  0.28855E-02  0.28734E-02  0.33018E-02  0.39131E-02  0.41874E-02
  0.38450E-02  0.32131E-02  0.28002E-02  0.29909E-02  0.39442E-02  0.52816E-02
  0.61367E-02  0.56676E-02  0.34782E-02 -0.41863E-08 -0.34782E-02 -0.56676E-02
 -0.61367E-02 -0.52816E-02 -0.39442E-02 -0.29909E-02 -0.28002E-02 -0.32131E-02
 -0.38450E-02 -0.41873E-02 -0.39131E-02 -0.33018E-02 -0.28734E-02 -0.28855E-02
 -0.35462E-02 -0.48827E-02 -0.61576E-02 -0.63096E-02 -0.21278E-02  0.72711E-04
  0.19420E-02  0.32390E-02  0.38885E-02  0.42040E-02  0.48827E-02  0.62794E-02
  0.84583E-02  0.11479E-01  0.14423E-01  0.15328E-01  0.13438E-01  0.10236E-01
  0.75213E-02  0.59048E-02  0.52897E-02  0.53516E-02  0.54220E-02  0.47091E-02
  0.28037E-02 -0.31009E-08 -0.28037E-02 -0.47091E-02 -0.54220E-02 -0.53516E-02
 -0.52897E-02 -0.59048E-02 -0.75213E-02 -0.10236E-01 -0.13438E-01 -0.15328E-01
 -0.14423E-01 -0.11479E-01 -0.84583E-02 -0.62794E-02 -0.48827E-02 -0.42040E-02
 -0.38885E-02 -0.32390E-02 -0.20821E-02 -0.64785E-03  0.45193E-03  0.13062E-02
  0.23246E-02  0.38885E-02  0.61576E-02  0.93115E-02  0.14210E-01  0.21284E-01
  0.27967E-01  0.29750E-01  0.25207E-01  0.17702E-01  0.11374E-01  0.76747E-02
  0.60017E-02  0.53804E-02  0.49754E-02  0.41069E-02  0.23962E-02 -0.35851E-09
 -0.23962E-02 -0.41069E-02 -0.49754E-02 -0.53804E-02 -0.60017E-02 -0.76747E-02
 -0.11374E-01 -0.17702E-01 -0.25207E-01 -0.29750E-01 -0.27967E-01 -0.21284E-01
 -0.14210E-01 -0.93115E-02 -0.61576E-02 -0.38885E-02 -0.23246E-02 -0.13062E-02
 -0.14259E-02 -0.27567E-03  0.33974E-03  0.56729E-03  0.13062E-02  0.32390E-02
  0.63096E-02  0.10804E-01  0.18276E-01  0.28988E-01  0.38470E-01  0.40236E-01
  0.32896E-01  0.21663E-01  0.12475E-01  0.73629E-02  0.52666E-02  0.45447E-02
  0.40791E-02  0.32872E-02  0.18992E-02  0.32792E-08 -0.18992E-02 -0.32872E-02
 -0.40791E-02 -0.45447E-02 -0.52666E-02 -0.73629E-02 -0.12475E-01 -0.21663E-01
 -0.32896E-01 -0.40236E-01 -0.38470E-01 -0.28988E-01 -0.18276E-01 -0.10804E-01
 -0.63096E-02 -0.32390E-02 -0.13062E-02 -0.56729E-03  0.12742E-02  0.84541E-03
  0.87597E-03  0.14621E-02  0.18774E-02  0.14878E-02  0.42467E-03 -0.56775E-03
 -0.14750E-03  0.34820E-02  0.10611E-01  0.17781E-01  0.19919E-01  0.15884E-01
  0.96929E-02  0.54649E-02  0.36576E-02  0.27970E-02  0.20986E-02  0.14712E-02
  0.79542E-03  0.28152E-08 -0.79542E-03 -0.14712E-02 -0.20986E-02 -0.27970E-02
 -0.36576E-02 -0.54649E-02 -0.96929E-02 -0.15884E-01 -0.19919E-01 -0.17781E-01
 -0.10611E-01 -0.34820E-02  0.14750E-03  0.56774E-03 -0.42467E-03 -0.14878E-02
 -0.18774E-02 -0.14621E-02  0.84542E-03 -0.86603E-04 -0.15098E-03  0.45326E-03
  0.50849E-03 -0.72997E-03 -0.30608E-02 -0.65385E-02 -0.11668E-01 -0.17152E-01
 -0.19179E-01 -0.15419E-01 -0.85097E-02 -0.30958E-02 -0.80707E-03 -0.27316E-03
 -0.22424E-03 -0.38469E-03 -0.60109E-03 -0.64159E-03 -0.41806E-03  0.32839E-08
  0.41807E-03  0.64160E-03  0.60110E-03  0.38469E-03  0.22424E-03  0.27316E-03
  0.80707E-03  0.30958E-02  0.85097E-02  0.15419E-01  0.19179E-01  0.17152E-01
  0.11668E-01  0.65385E-02  0.30608E-02  0.72997E-03 -0.50849E-03 -0.45326E-03
  0.87598E-03 -0.15097E-03 -0.24269E-03  0.11379E-04 -0.62438E-03 -0.25883E-02
 -0.56527E-02 -0.10732E-01 -0.20004E-01 -0.32941E-01 -0.43268E-01 -0.43693E-01
 -0.33921E-01 -0.20803E-01 -0.10870E-01 -0.57014E-02 -0.37185E-02 -0.31493E-02
 -0.29138E-02 -0.24355E-02 -0.14409E-02  0.33363E-08  0.14409E-02  0.24355E-02
  0.29138E-02  0.31493E-02  0.37185E-02  0.57014E-02  0.10870E-01  0.20803E-01
  0.33921E-01  0.43693E-01  0.43268E-01  0.32941E-01  0.20004E-01  0.10732E-01
  0.56527E-02  0.25883E-02  0.62438E-03 -0.11375E-04  0.14621E-02  0.45327E-03
  0.11384E-04 -0.48714E-03 -0.17330E-02 -0.37844E-02 -0.65898E-02 -0.11290E-01
 -0.20263E-01 -0.33626E-01 -0.45610E-01 -0.48151E-01 -0.39419E-01 -0.25739E-01
 -0.14504E-01 -0.82689E-02 -0.57127E-02 -0.48892E-02 -0.44919E-02 -0.37244E-02
 -0.21836E-02  0.26819E-08  0.21836E-02  0.37244E-02  0.44919E-02  0.48892E-02
  0.57127E-02  0.82689E-02  0.14504E-01  0.25739E-01  0.39419E-01  0.48151E-01
  0.45610E-01  0.33626E-01  0.20263E-01  0.11290E-01  0.65898E-02  0.37844E-02
  0.17330E-02  0.48715E-03  0.18774E-02  0.50850E-03 -0.62437E-03 -0.17330E-02
 -0.28360E-02 -0.39742E-02 -0.56142E-02 -0.86220E-02 -0.14247E-01 -0.22702E-01
 -0.30674E-01 -0.32816E-01 -0.27497E-01 -0.18741E-01 -0.11468E-01 -0.73553E-02
 -0.56599E-02 -0.52922E-02 -0.52428E-02 -0.45504E-02 -0.27117E-02  0.16448E-08
  0.27117E-02  0.45504E-02  0.52428E-02  0.52922E-02  0.56599E-02  0.73553E-02
  0.11468E-01  0.18741E-01  0.27497E-01  0.32816E-01  0.30674E-01  0.22702E-01
  0.14247E-01  0.86220E-02  0.56142E-02  0.39742E-02  0.28360E-02  0.17330E-02
  0.14878E-02 -0.72996E-03 -0.25883E-02 -0.37844E-02 -0.39742E-02 -0.34696E-02
 -0.33480E-02 -0.43278E-02 -0.65283E-02 -0.98352E-02 -0.13047E-01 -0.13920E-01
 -0.11688E-01 -0.81592E-02 -0.54163E-02 -0.40558E-02 -0.39075E-02 -0.46378E-02
 -0.53980E-02 -0.50654E-02 -0.31103E-02  0.74351E-09  0.31103E-02  0.50654E-02
  0.53980E-02  0.46378E-02  0.39075E-02  0.40558E-02  0.54163E-02  0.81592E-02
  0.11688E-01  0.13920E-01  0.13047E-01  0.98352E-02  0.65283E-02  0.43278E-02
  0.33480E-02  0.34696E-02  0.39742E-02  0.37844E-02  0.42468E-03 -0.30608E-02
 -0.56527E-02 -0.65898E-02 -0.56142E-02 -0.33480E-02 -0.11136E-02  0.20961E-03
  0.64154E-03  0.45552E-03  0.28064E-04 -0.29448E-04  0.46899E-03  0.96686E-03
  0.88597E-03  0.79303E-05 -0.17045E-02 -0.38902E-02 -0.55830E-02 -0.56717E-02
 -0.36207E-02 -0.13789E-10  0.36207E-02  0.56717E-02  0.55830E-02  0.38902E-02
  0.17045E-02 -0.79300E-05 -0.88597E-03 -0.96686E-03 -0.46899E-03  0.29448E-04
 -0.28064E-04 -0.45552E-03 -0.64154E-03 -0.20961E-03  0.11136E-02  0.33480E-02
  0.56142E-02  0.65898E-02 -0.56773E-03 -0.65385E-02 -0.10732E-01 -0.11290E-01
 -0.86220E-02 -0.43278E-02  0.20961E-03  0.40942E-02  0.68640E-02  0.85487E-02
  0.94438E-02  0.97042E-02  0.92963E-02  0.81943E-02  0.62898E-02  0.33838E-02
 -0.29409E-03 -0.39466E-02 -0.66924E-02 -0.74766E-02 -0.51231E-02 -0.73097E-09
  0.51231E-02  0.74766E-02  0.66924E-02  0.39466E-02  0.29409E-03 -0.33838E-02
 -0.62898E-02 -0.81943E-02 -0.92963E-02 -0.97042E-02 -0.94438E-02 -0.85487E-02
 -0.68640E-02 -0.40942E-02 -0.20961E-03  0.43278E-02  0.86220E-02  0.11290E-01
 -0.14749E-03 -0.11668E-01 -0.20004E-01 -0.20263E-01 -0.14247E-01 -0.65283E-02
  0.64154E-03  0.68640E-02  0.11637E-01  0.14732E-01  0.16483E-01  0.16933E-01
  0.15919E-01  0.13631E-01  0.10134E-01  0.53559E-02 -0.58255E-04 -0.52904E-02
 -0.10031E-01 -0.12521E-01 -0.92355E-02 -0.72313E-09  0.92355E-02  0.12521E-01
  0.10031E-01  0.52904E-02  0.58256E-04 -0.53559E-02 -0.10134E-01 -0.13631E-01
 -0.15919E-01 -0.16933E-01 -0.16483E-01 -0.14732E-01 -0.11637E-01 -0.68640E-02
 -0.64154E-03  0.65283E-02  0.14247E-01  0.20263E-01  0.34820E-02 -0.17152E-01
 -0.32941E-01 -0.33626E-01 -0.22702E-01 -0.98352E-02  0.45552E-03  0.85487E-02
  0.14732E-01  0.18837E-01  0.21200E-01  0.21807E-01  0.20388E-01  0.17198E-01
  0.12410E-01  0.61668E-02 -0.71239E-03 -0.81087E-02 -0.16448E-01 -0.21894E-01
 -0.16672E-01  0.75259E-09  0.16672E-01  0.21894E-01  0.16448E-01  0.81087E-02
  0.71239E-03 -0.61668E-02 -0.12410E-01 -0.17198E-01 -0.20388E-01 -0.21807E-01
 -0.21200E-01 -0.18837E-01 -0.14732E-01 -0.85487E-02 -0.45552E-03  0.98352E-02
  0.22702E-01  0.33626E-01  0.10611E-01 -0.19179E-01 -0.43268E-01 -0.45610E-01
 -0.30674E-01 -0.13047E-01  0.28052E-04  0.94438E-02  0.16483E-01  0.21200E-01
  0.23899E-01  0.24548E-01  0.22862E-01  0.19106E-01  0.13496E-01  0.63030E-02
 -0.17791E-02 -0.11589E-01 -0.24003E-01 -0.32514E-01 -0.24893E-01  0.27168E-08
  0.24893E-01  0.32514E-01  0.24003E-01  0.11589E-01  0.17791E-02 -0.63030E-02
 -0.13496E-01 -0.19106E-01 -0.22862E-01 -0.24548E-01 -0.23899E-01 -0.21200E-01
 -0.16483E-01 -0.94438E-02 -0.28053E-04  0.13047E-01  0.30674E-01  0.45610E-01
  0.17781E-01 -0.15419E-01 -0.43693E-01 -0.48151E-01 -0.32816E-01 -0.13920E-01
 -0.29461E-04  0.97042E-02  0.16933E-01  0.21807E-01  0.24548E-01  0.25082E-01
  0.23168E-01  0.19146E-01  0.13277E-01  0.58349E-02 -0.26899E-02 -0.13646E-01
 -0.27984E-01 -0.37811E-01 -0.28881E-01  0.30300E-08  0.28881E-01  0.37811E-01
  0.27984E-01  0.13646E-01  0.26899E-02 -0.58349E-02 -0.13277E-01 -0.19146E-01
 -0.23168E-01 -0.25082E-01 -0.24548E-01 -0.21807E-01 -0.16933E-01 -0.97042E-02
  0.29461E-04  0.13920E-01  0.32816E-01  0.48151E-01  0.19919E-01 -0.85097E-02
 -0.33921E-01 -0.39419E-01 -0.27497E-01 -0.11688E-01  0.46897E-03  0.92963E-02
  0.15919E-01  0.20388E-01  0.22862E-01  0.23168E-01  0.21099E-01  0.17137E-01
  0.11627E-01  0.47578E-02 -0.30414E-02 -0.12830E-01 -0.25383E-01 -0.33833E-01
 -0.25714E-01  0.12739E-08  0.25714E-01  0.33833E-01  0.25383E-01  0.12830E-01
  0.30414E-02 -0.47578E-02 -0.11627E-01 -0.17137E-01 -0.21099E-01 -0.23168E-01
 -0.22862E-01 -0.20388E-01 -0.15919E-01 -0.92963E-02 -0.46897E-03  0.11688E-01
  0.27497E-01  0.39419E-01  0.15884E-01 -0.30958E-02 -0.20803E-01 -0.25739E-01
 -0.18741E-01 -0.81593E-02  0.96685E-03  0.81943E-02  0.13631E-01  0.17198E-01
  0.19106E-01  0.19146E-01  0.17137E-01  0.13635E-01  0.90164E-02  0.33364E-02
 -0.29302E-02 -0.10009E-01 -0.18280E-01 -0.23499E-01 -0.17627E-01 -0.57779E-09
  0.17627E-01  0.23499E-01  0.18280E-01  0.10009E-01  0.29302E-02 -0.33364E-02
 -0.90164E-02 -0.13635E-01 -0.17137E-01 -0.19146E-01 -0.19106E-01 -0.17198E-01
 -0.13631E-01 -0.81943E-02 -0.96685E-03  0.81593E-02  0.18741E-01  0.25739E-01
  0.96929E-02 -0.80705E-03 -0.10870E-01 -0.14504E-01 -0.11468E-01 -0.54163E-02
  0.88596E-03  0.62898E-02  0.10134E-01  0.12410E-01  0.13496E-01  0.13277E-01
  0.11627E-01  0.90164E-02  0.57344E-02  0.16890E-02 -0.27269E-02 -0.70512E-02
 -0.11135E-01 -0.13136E-01 -0.94799E-02 -0.92821E-09  0.94799E-02  0.13136E-01
  0.11135E-01  0.70512E-02  0.27269E-02 -0.16889E-02 -0.57344E-02 -0.90164E-02
 -0.11627E-01 -0.13277E-01 -0.13496E-01 -0.12410E-01 -0.10134E-01 -0.62898E-02
 -0.88596E-03  0.54163E-02  0.11468E-01  0.14504E-01  0.54649E-02 -0.27315E-03
 -0.57014E-02 -0.82689E-02 -0.73553E-02 -0.40558E-02  0.79230E-05  0.33838E-02
  0.53559E-02  0.61668E-02  0.63029E-02  0.58349E-02  0.47578E-02  0.33364E-02