       #
       # Generated by the Wannier90 code http://www.wannier.org
       # On 23Sep2015 at 21:20:35 
       #
CRYSTAL
PRIMVEC
   3.8425000   0.0000000   0.0000000
   0.0000000   3.8425000   0.0000000
   0.0000000   0.0000000   3.8425000
CONVVEC
   3.8425000   0.0000000   0.0000000
   0.0000000   3.8425000   0.0000000
   0.0000000   0.0000000   3.8425000
PRIMCOORD
     5  1
V       0.0000000   0.0000000   0.0000000
Sr      1.9212500   1.9212500   1.9212500
O       1.9212500   0.0000000   0.0000000
O       0.0000000   1.9212500   0.0000000
O       0.0000000   0.0000000   1.9212500


BEGIN_BLOCK_DATAGRID_3D
3D_field
BEGIN_DATAGRID_3D_UNKNOWN
    40    40    40
   -4.034625   -4.034625   -4.034625
   7.4928749   0.0000000   0.0000000
   0.0000000   7.4928749   0.0000000
   0.0000000   0.0000000   7.4928749
 -0.27213E-03  0.11699E-03  0.67138E-03  0.14260E-02  0.20824E-02  0.21284E-02
  0.15034E-02  0.96115E-03  0.21007E-02  0.67758E-02  0.14834E-01  0.22185E-01
  0.23614E-01  0.18522E-01  0.11568E-01  0.70628E-02  0.53179E-02  0.46459E-02
  0.40102E-02  0.30858E-02  0.17170E-02  0.35919E-08 -0.17170E-02 -0.30858E-02
 -0.40102E-02 -0.46459E-02 -0.53179E-02 -0.70628E-02 -0.11568E-01 -0.18522E-01
 -0.23614E-01 -0.22185E-01 -0.14834E-01 -0.67758E-02 -0.21007E-02 -0.96114E-03
 -0.15034E-02 -0.21283E-02 -0.20824E-02 -0.14260E-02  0.12693E-02  0.84107E-03
  0.87227E-03  0.14592E-02  0.18755E-02  0.14870E-02  0.42481E-03 -0.56663E-03
 -0.14531E-03  0.34849E-02  0.10613E-01  0.17781E-01  0.19918E-01  0.15882E-01
  0.96912E-02  0.54637E-02  0.36568E-02  0.27964E-02  0.20982E-02  0.14710E-02
  0.79529E-03  0.28537E-08 -0.79528E-03 -0.14710E-02 -0.20982E-02 -0.27964E-02
 -0.36568E-02 -0.54637E-02 -0.96912E-02 -0.15882E-01 -0.19918E-01 -0.17781E-01
 -0.10613E-01 -0.34849E-02  0.14531E-03  0.56663E-03 -0.42481E-03 -0.14870E-02
 -0.18755E-02 -0.14592E-02  0.13791E-02  0.51356E-03  0.53947E-03  0.11311E-02
  0.13103E-02  0.69257E-03 -0.41931E-03 -0.15928E-02 -0.21371E-02 -0.77641E-03
  0.32246E-02  0.81457E-02  0.10552E-01  0.89908E-02  0.55219E-02  0.27731E-02
  0.12786E-02  0.36919E-03 -0.23056E-03 -0.44929E-03 -0.32413E-03  0.23178E-08
  0.32414E-03  0.44929E-03  0.23057E-03 -0.36918E-03 -0.12786E-02 -0.27731E-02
 -0.55219E-02 -0.89908E-02 -0.10552E-01 -0.81457E-02 -0.32246E-02  0.77640E-03
  0.21371E-02  0.15928E-02  0.41930E-03 -0.69258E-03 -0.13103E-02 -0.11311E-02
  0.53723E-03 -0.49666E-04  0.22350E-03  0.69389E-03  0.72354E-03  0.28696E-03
 -0.54151E-03 -0.17964E-02 -0.32019E-02 -0.39078E-02 -0.29698E-02 -0.56515E-03
  0.16108E-02  0.20284E-02  0.92660E-03 -0.50416E-03 -0.16194E-02 -0.23323E-02
 -0.25836E-02 -0.22886E-02 -0.13852E-02  0.41267E-08  0.13852E-02  0.22886E-02
  0.25836E-02  0.23324E-02  0.16194E-02  0.50417E-03 -0.92659E-03 -0.20284E-02
 -0.16108E-02  0.56515E-03  0.29698E-02  0.39078E-02  0.32019E-02  0.17963E-02
  0.54150E-03 -0.28697E-03 -0.72355E-03 -0.69390E-03 -0.61549E-04  0.94576E-04
  0.51099E-03  0.66999E-03  0.58542E-03  0.36003E-03 -0.33734E-03 -0.17272E-02
 -0.34993E-02 -0.50309E-02 -0.55353E-02 -0.46434E-02 -0.32039E-02 -0.25509E-02
 -0.29815E-02 -0.38528E-02 -0.46450E-02 -0.51352E-02 -0.51075E-02 -0.43177E-02
 -0.25565E-02  0.62475E-08  0.25565E-02  0.43177E-02  0.51075E-02  0.51352E-02
  0.46450E-02  0.38528E-02  0.29815E-02  0.25510E-02  0.32039E-02  0.46434E-02
  0.55353E-02  0.50308E-02  0.34993E-02  0.17272E-02  0.33733E-03 -0.36005E-03
 -0.58543E-03 -0.67000E-03  0.27339E-03  0.11323E-02  0.16277E-02  0.16343E-02
  0.14425E-02  0.99133E-03 -0.83503E-04 -0.16560E-02 -0.32684E-02 -0.46516E-02
 -0.54307E-02 -0.53409E-02 -0.50201E-02 -0.53038E-02 -0.60301E-02 -0.66938E-02
 -0.73646E-02 -0.80427E-02 -0.81153E-02 -0.68766E-02 -0.40312E-02  0.57213E-08
  0.40312E-02  0.68766E-02  0.81153E-02  0.80427E-02  0.73646E-02  0.66939E-02
  0.60301E-02  0.53038E-02  0.50201E-02  0.53409E-02  0.54307E-02  0.46516E-02
  0.32684E-02  0.16560E-02  0.83486E-04 -0.99134E-03 -0.14425E-02 -0.16343E-02
  0.91980E-03  0.24438E-02  0.34125E-02  0.37056E-02  0.33671E-02  0.22671E-02
  0.49453E-03 -0.12932E-02 -0.26760E-02 -0.38588E-02 -0.48346E-02 -0.54473E-02
 -0.61367E-02 -0.71876E-02 -0.81044E-02 -0.88235E-02 -0.99978E-02 -0.11449E-01
 -0.11900E-01 -0.10217E-01 -0.60246E-02  0.26108E-08  0.60247E-02  0.10217E-01
  0.11900E-01  0.11449E-01  0.99978E-02  0.88236E-02  0.81044E-02  0.71876E-02
  0.61367E-02  0.54473E-02  0.48345E-02  0.38588E-02  0.26760E-02  0.12931E-02
 -0.49454E-03 -0.22671E-02 -0.33671E-02 -0.37056E-02  0.72235E-03  0.37769E-02
  0.61683E-02  0.68506E-02  0.58572E-02  0.38380E-02  0.14575E-02 -0.61735E-03
 -0.21741E-02 -0.35682E-02 -0.49099E-02 -0.60659E-02 -0.72133E-02 -0.83669E-02
 -0.93646E-02 -0.10769E-01 -0.13150E-01 -0.15717E-01 -0.16951E-01 -0.15364E-01
 -0.95407E-02 -0.89827E-09  0.95407E-02  0.15364E-01  0.16951E-01  0.15717E-01
  0.13150E-01  0.10769E-01  0.93646E-02  0.83669E-02  0.72133E-02  0.60659E-02
  0.49099E-02  0.35682E-02  0.21741E-02  0.61733E-03 -0.14576E-02 -0.38380E-02
 -0.58572E-02 -0.68506E-02 -0.15544E-02  0.48903E-02  0.10170E-01  0.11159E-01
  0.86855E-02  0.54108E-02  0.25203E-02 -0.14467E-04 -0.21957E-02 -0.40266E-02
 -0.55830E-02 -0.69297E-02 -0.81364E-02 -0.92244E-02 -0.10624E-01 -0.13193E-01
 -0.16918E-01 -0.20904E-01 -0.24304E-01 -0.24426E-01 -0.16394E-01 -0.29062E-08
  0.16394E-01  0.24426E-01  0.24304E-01  0.20904E-01  0.16918E-01  0.13193E-01
  0.10624E-01  0.92245E-02  0.81365E-02  0.69297E-02  0.55830E-02  0.40266E-02
  0.21957E-02  0.14453E-04 -0.25203E-02 -0.54108E-02 -0.86855E-02 -0.11159E-01
 -0.78411E-02  0.34072E-02  0.13272E-01  0.15543E-01  0.11799E-01  0.71166E-02
  0.34471E-02  0.18953E-03 -0.27078E-02 -0.48329E-02 -0.63616E-02 -0.77330E-02
 -0.90288E-02 -0.10291E-01 -0.12284E-01 -0.15802E-01 -0.20553E-01 -0.26634E-01
 -0.34289E-01 -0.37959E-01 -0.26894E-01 -0.20109E-08  0.26894E-01  0.37959E-01
  0.34289E-01  0.26634E-01  0.20553E-01  0.15802E-01  0.12284E-01  0.10291E-01
  0.90288E-02  0.77330E-02  0.63616E-02  0.48329E-02  0.27078E-02 -0.18954E-03
 -0.34471E-02 -0.71166E-02 -0.11799E-01 -0.15543E-01 -0.18682E-01 -0.35004E-02
  0.11620E-01  0.17185E-01  0.14042E-01  0.85774E-02  0.39584E-02  0.32045E-04
 -0.31375E-02 -0.52290E-02 -0.67157E-02 -0.82130E-02 -0.97030E-02 -0.11163E-01
 -0.13429E-01 -0.17252E-01 -0.22673E-01 -0.31204E-01 -0.43722E-01 -0.51206E-01
 -0.37170E-01  0.24779E-08  0.37170E-01  0.51206E-01  0.43722E-01  0.31204E-01
  0.22673E-01  0.17252E-01  0.13429E-01  0.11163E-01  0.97030E-02  0.82131E-02
  0.67157E-02  0.52290E-02  0.31375E-02 -0.32057E-04 -0.39584E-02 -0.85774E-02
 -0.14042E-01 -0.17185E-01 -0.29266E-01 -0.13394E-01  0.49813E-02  0.14446E-01
  0.13786E-01  0.89127E-02  0.41008E-02  0.30078E-03 -0.24442E-02 -0.43888E-02
 -0.61180E-02 -0.79002E-02 -0.94913E-02 -0.10887E-01 -0.12967E-01 -0.16566E-01
 -0.22102E-01 -0.31750E-01 -0.46459E-01 -0.55697E-01 -0.40792E-01  0.87277E-08
  0.40792E-01  0.55697E-01  0.46459E-01  0.31750E-01  0.22102E-01  0.16566E-01
  0.12967E-01  0.10887E-01  0.94913E-02  0.79002E-02  0.61180E-02  0.43888E-02
  0.24442E-02 -0.30079E-03 -0.41009E-02 -0.89127E-02 -0.13786E-01 -0.14446E-01
 -0.31757E-01 -0.18683E-01 -0.13562E-02  0.96453E-02  0.11515E-01  0.84944E-02
  0.48837E-02  0.21676E-02  0.69360E-04 -0.20789E-02 -0.44055E-02 -0.64954E-02
 -0.80379E-02 -0.92556E-02 -0.11045E-01 -0.14187E-01 -0.18964E-01 -0.27045E-01
 -0.39356E-01 -0.47227E-01 -0.34686E-01  0.12377E-07  0.34686E-01  0.47227E-01
  0.39356E-01  0.27045E-01  0.18964E-01  0.14187E-01  0.11045E-01  0.92556E-02
  0.80379E-02  0.64954E-02  0.44055E-02  0.20789E-02 -0.69381E-04 -0.21676E-02
 -0.48837E-02 -0.84944E-02 -0.11515E-01 -0.96453E-02 -0.23927E-01 -0.15142E-01
 -0.24519E-02  0.68810E-02  0.99872E-02  0.91312E-02  0.74058E-02  0.59197E-02
  0.40854E-02  0.13726E-02 -0.16161E-02 -0.40116E-02 -0.56988E-02 -0.70559E-02
 -0.87124E-02 -0.11203E-01 -0.14479E-01 -0.19212E-01 -0.26243E-01 -0.30723E-01
 -0.22475E-01  0.10535E-07  0.22475E-01  0.30723E-01  0.26243E-01  0.19213E-01
  0.14479E-01  0.11203E-01  0.87124E-02  0.70559E-02  0.56989E-02  0.40116E-02
  0.16161E-02 -0.13726E-02 -0.40854E-02 -0.59197E-02 -0.74059E-02 -0.91312E-02
 -0.99872E-02 -0.68810E-02 -0.11754E-01 -0.65086E-02  0.11950E-02  0.78696E-02
  0.11257E-01  0.11991E-01  0.11858E-01  0.11392E-01  0.97500E-02  0.65846E-02
  0.28514E-02 -0.52143E-03 -0.34152E-02 -0.57395E-02 -0.73647E-02 -0.86267E-02
 -0.98687E-02 -0.11458E-01 -0.13829E-01 -0.15093E-01 -0.10758E-01  0.54194E-08
  0.10758E-01  0.15093E-01  0.13829E-01  0.11458E-01  0.98687E-02  0.86267E-02
  0.73647E-02  0.57395E-02  0.34152E-02  0.52142E-03 -0.28514E-02 -0.65846E-02
 -0.97501E-02 -0.11392E-01 -0.11858E-01 -0.11991E-01 -0.11257E-01 -0.78696E-02
 -0.18993E-02  0.14343E-02  0.63272E-02  0.11553E-01  0.15078E-01  0.16935E-01
  0.18539E-01  0.19696E-01  0.18733E-01  0.15059E-01  0.96077E-02  0.33942E-02
 -0.26814E-02 -0.71842E-02 -0.88828E-02 -0.81073E-02 -0.65248E-02 -0.55772E-02
 -0.53995E-02 -0.49651E-02 -0.31555E-02  0.22531E-08  0.31555E-02  0.49651E-02
  0.53995E-02  0.55772E-02  0.65248E-02  0.81073E-02  0.88828E-02  0.71842E-02
  0.26814E-02 -0.33942E-02 -0.96077E-02 -0.15059E-01 -0.18733E-01 -0.19696E-01
 -0.18539E-01 -0.16935E-01 -0.15078E-01 -0.11553E-01  0.42132E-02  0.70111E-02
  0.11348E-01  0.16420E-01  0.20328E-01  0.23907E-01  0.28551E-01  0.32356E-01
  0.32371E-01  0.27862E-01  0.19187E-01  0.72091E-02 -0.50099E-02 -0.13201E-01
 -0.15139E-01 -0.11840E-01 -0.65411E-02 -0.24493E-02 -0.33284E-03  0.79422E-03
  0.10074E-02  0.36757E-08 -0.10074E-02 -0.79421E-03  0.33286E-03  0.24493E-02
  0.65411E-02  0.11840E-01  0.15139E-01  0.13201E-01  0.50100E-02 -0.72091E-02
 -0.19187E-01 -0.27862E-01 -0.32371E-01 -0.32356E-01 -0.28551E-01 -0.23907E-01
 -0.20328E-01 -0.16420E-01  0.77768E-02  0.10929E-01  0.15871E-01  0.21362E-01
  0.26365E-01  0.33210E-01  0.42310E-01  0.49638E-01  0.52492E-01  0.49857E-01
  0.37716E-01  0.14546E-01 -0.10707E-01 -0.25938E-01 -0.27896E-01 -0.21220E-01
 -0.11484E-01 -0.28612E-02  0.25769E-02  0.48084E-02  0.38029E-02  0.78022E-08
 -0.38028E-02 -0.48084E-02 -0.25769E-02  0.28612E-02  0.11484E-01  0.21220E-01
  0.27896E-01  0.25938E-01  0.10707E-01 -0.14546E-01 -0.37716E-01 -0.49857E-01
 -0.52492E-01 -0.49638E-01 -0.42310E-01 -0.33210E-01 -0.26365E-01 -0.21362E-01
  0.89019E-02  0.12883E-01  0.18878E-01  0.25324E-01  0.32703E-01  0.44270E-01
  0.58650E-01  0.72056E-01  0.85407E-01  0.94134E-01  0.80022E-01  0.34797E-01
 -0.18446E-01 -0.48535E-01 -0.49717E-01 -0.36634E-01 -0.20979E-01 -0.66719E-02
  0.37881E-02  0.82737E-02  0.63646E-02  0.11311E-07 -0.63646E-02 -0.82737E-02
 -0.37881E-02  0.66719E-02  0.20979E-01  0.36634E-01  0.49717E-01  0.48535E-01
  0.18446E-01 -0.34797E-01 -0.80022E-01 -0.94134E-01 -0.85407E-01 -0.72056E-01
 -0.58651E-01 -0.44270E-01 -0.32703E-01 -0.25324E-01  0.76537E-02  0.12514E-01
  0.19694E-01  0.27714E-01  0.38483E-01  0.55177E-01  0.75380E-01  0.99750E-01
  0.13528E+00  0.16763E+00  0.15303E+00  0.72804E-01 -0.26160E-01 -0.80986E-01
 -0.80746E-01 -0.56813E-01 -0.32765E-01 -0.12209E-01  0.38092E-02  0.11227E-01
  0.87732E-02  0.12427E-07 -0.87731E-02 -0.11227E-01 -0.38092E-02  0.12209E-01
  0.32765E-01  0.56813E-01  0.80746E-01  0.80986E-01  0.26160E-01 -0.72804E-01
 -0.15303E+00 -0.16763E+00 -0.13528E+00 -0.99750E-01 -0.75380E-01 -0.55177E-01
 -0.38483E-01 -0.27714E-01  0.56101E-02  0.11070E-01  0.19196E-01  0.28789E-01
  0.42608E-01  0.63328E-01  0.88844E-01  0.12608E+00  0.18741E+00  0.24609E+00
  0.23135E+00  0.11477E+00 -0.31873E-01 -0.11297E+00 -0.11148E+00 -0.75821E-01
 -0.42984E-01 -0.16997E-01  0.34345E-02  0.13328E-01  0.10606E-01  0.11147E-07
 -0.10606E-01 -0.13328E-01 -0.34344E-02  0.16997E-01  0.42984E-01  0.75821E-01
  0.11148E+00  0.11297E+00  0.31873E-01 -0.11477E+00 -0.23135E+00 -0.24609E+00
 -0.18741E+00 -0.12608E+00 -0.88844E-01 -0.63328E-01 -0.42608E-01 -0.28789E-01
  0.46791E-02  0.10340E-01  0.18824E-01  0.29076E-01  0.44116E-01  0.66374E-01
  0.94166E-01  0.13738E+00  0.21051E+00  0.28091E+00  0.26606E+00  0.13354E+00
 -0.33999E-01 -0.12672E+00 -0.12476E+00 -0.83878E-01 -0.47115E-01 -0.18882E-01
  0.32496E-02  0.14110E-01  0.11307E-01  0.83861E-08 -0.11307E-01 -0.14110E-01
 -0.32496E-02  0.18882E-01  0.47115E-01  0.83878E-01  0.12476E+00  0.12672E+00
  0.33999E-01 -0.13354E+00 -0.26606E+00 -0.28091E+00 -0.21051E+00 -0.13738E+00
 -0.94166E-01 -0.66374E-01 -0.44116E-01 -0.29076E-01  0.56102E-02  0.11070E-01
  0.19196E-01  0.28789E-01  0.42608E-01  0.63328E-01  0.88844E-01  0.12608E+00
  0.18741E+00  0.24609E+00  0.23135E+00  0.11477E+00 -0.31873E-01 -0.11297E+00
 -0.11148E+00 -0.75821E-01 -0.42984E-01 -0.16997E-01  0.34345E-02  0.13328E-01
  0.10606E-01  0.50637E-08 -0.10606E-01 -0.13328E-01 -0.34345E-02  0.16997E-01
  0.42984E-01  0.75821E-01  0.11148E+00  0.11297E+00  0.31873E-01 -0.11477E+00
 -0.23135E+00 -0.24609E+00 -0.18741E+00 -0.12608E+00 -0.88844E-01 -0.63328E-01
 -0.42608E-01 -0.28789E-01  0.76537E-02  0.12514E-01  0.19694E-01  0.27714E-01
  0.38483E-01  0.55177E-01  0.75380E-01  0.99750E-01  0.13528E+00  0.16763E+00
  0.15303E+00  0.72804E-01 -0.26160E-01 -0.80986E-01 -0.80746E-01 -0.56813E-01
 -0.32765E-01 -0.12209E-01  0.38092E-02  0.11227E-01  0.87732E-02  0.15588E-08
 -0.87731E-02 -0.11227E-01 -0.38092E-02  0.12209E-01  0.32765E-01  0.56813E-01
  0.80746E-01  0.80986E-01  0.26160E-01 -0.72804E-01 -0.15303E+00 -0.16763E+00
 -0.13528E+00 -0.99750E-01 -0.75380E-01 -0.55177E-01 -0.38483E-01 -0.27714E-01
  0.89020E-02  0.12883E-01  0.18878E-01  0.25324E-01  0.32703E-01  0.44270E-01
  0.58650E-01  0.72056E-01  0.85407E-01  0.94134E-01  0.80022E-01  0.34797E-01
 -0.18446E-01 -0.48535E-01 -0.49717E-01 -0.36634E-01 -0.20979E-01 -0.66719E-02
  0.37881E-02  0.82737E-02  0.63646E-02 -0.15352E-08 -0.63646E-02 -0.82737E-02
 -0.37881E-02  0.66719E-02  0.20979E-01  0.36634E-01  0.49717E-01  0.48535E-01
  0.18446E-01 -0.34797E-01 -0.80022E-01 -0.94134E-01 -0.85407E-01 -0.72056E-01
 -0.58650E-01 -0.44270E-01 -0.32703E-01 -0.25324E-01  0.77769E-02  0.10929E-01
  0.15871E-01  0.21362E-01  0.26365E-01  0.33210E-01  0.42310E-01  0.49638E-01
  0.52492E-01  0.49857E-01  0.37716E-01  0.14546E-01 -0.10707E-01 -0.25938E-01
 -0.27896E-01 -0.21220E-01 -0.11484E-01 -0.28612E-02  0.25769E-02  0.48084E-02
  0.38028E-02 -0.31457E-08 -0.38029E-02 -0.48084E-02 -0.25769E-02  0.28612E-02
  0.11484E-01  0.21220E-01  0.27896E-01  0.25938E-01  0.10707E-01 -0.14546E-01
 -0.37716E-01 -0.49857E-01 -0.52492E-01 -0.49638E-01 -0.42310E-01 -0.33210E-01
 -0.26365E-01 -0.21362E-01  0.42133E-02  0.70111E-02  0.11348E-01  0.16420E-01
  0.20328E-01  0.23907E-01  0.28551E-01  0.32356E-01  0.32371E-01  0.27862E-01
  0.19187E-01  0.72091E-02 -0.50100E-02 -0.13201E-01 -0.15139E-01 -0.11840E-01
 -0.65411E-02 -0.24493E-02 -0.33287E-03  0.79420E-03  0.10074E-02 -0.39813E-08
 -0.10074E-02 -0.79421E-03  0.33286E-03  0.24493E-02  0.65411E-02  0.11840E-01
  0.15139E-01  0.13201E-01  0.50100E-02 -0.72091E-02 -0.19187E-01 -0.27862E-01
 -0.32371E-01 -0.32356E-01 -0.28551E-01 -0.23907E-01 -0.20328E-01 -0.16420E-01
 -0.18993E-02  0.14343E-02  0.63272E-02  0.11553E-01  0.15078E-01  0.16935E-01
  0.18539E-01  0.19696E-01  0.18733E-01  0.15059E-01  0.96077E-02  0.33942E-02
 -0.26814E-02 -0.71843E-02 -0.88828E-02 -0.81074E-02 -0.65248E-02 -0.55773E-02
 -0.53996E-02 -0.49652E-02 -0.31555E-02 -0.74408E-08  0.31555E-02  0.49651E-02
  0.53995E-02  0.55773E-02  0.65248E-02  0.81073E-02  0.88828E-02  0.71842E-02
  0.26814E-02 -0.33942E-02 -0.96077E-02 -0.15059E-01 -0.18733E-01 -0.19696E-01
 -0.18539E-01 -0.16935E-01 -0.15078E-01 -0.11553E-01 -0.11754E-01 -0.65086E-02
  0.11950E-02  0.78696E-02  0.11257E-01  0.11991E-01  0.11858E-01  0.11392E-01
  0.97501E-02  0.65846E-02  0.28514E-02 -0.52144E-03 -0.34152E-02 -0.57396E-02
 -0.73648E-02 -0.86267E-02 -0.98687E-02 -0.11458E-01 -0.13829E-01 -0.15093E-01
 -0.10758E-01 -0.15373E-07  0.10758E-01  0.15093E-01  0.13829E-01  0.11458E-01
  0.98687E-02  0.86267E-02  0.73648E-02  0.57395E-02  0.34152E-02  0.52143E-03
 -0.28514E-02 -0.65846E-02 -0.97501E-02 -0.11392E-01 -0.11858E-01 -0.11991E-01
 -0.11257E-01 -0.78696E-02 -0.23927E-01 -0.15142E-01 -0.24519E-02  0.68810E-02
  0.99872E-02  0.91312E-02  0.74059E-02  0.59198E-02  0.40854E-02  0.13726E-02
 -0.16161E-02 -0.40116E-02 -0.56989E-02 -0.70559E-02 -0.87124E-02 -0.11203E-01
 -0.14480E-01 -0.19213E-01 -0.26243E-01 -0.30723E-01 -0.22475E-01 -0.24333E-07
  0.22475E-01  0.30723E-01  0.26243E-01  0.19213E-01  0.14480E-01  0.11203E-01
  0.87124E-02  0.70559E-02  0.56989E-02  0.40116E-02  0.16161E-02 -0.13726E-02
 -0.40854E-02 -0.59197E-02 -0.74059E-02 -0.91312E-02 -0.99872E-02 -0.68810E-02
 -0.31757E-01 -0.18683E-01 -0.13562E-02  0.96453E-02  0.11515E-01  0.84944E-02
  0.48837E-02  0.21676E-02  0.69400E-04 -0.20789E-02 -0.44055E-02 -0.64955E-02
 -0.80379E-02 -0.92557E-02 -0.11045E-01 -0.14187E-01 -0.18964E-01 -0.27045E-01
 -0.39356E-01 -0.47227E-01 -0.34686E-01 -0.28981E-07  0.34686E-01  0.47227E-01
  0.39356E-01  0.27045E-01  0.18964E-01  0.14187E-01  0.11045E-01  0.92556E-02
  0.80379E-02  0.64954E-02  0.44055E-02  0.20789E-02 -0.69381E-04 -0.21676E-02
 -0.48837E-02 -0.84944E-02 -0.11515E-01 -0.96452E-02 -0.29266E-01 -0.13394E-01
  0.49812E-02  0.14446E-01  0.13786E-01  0.89127E-02  0.41009E-02  0.30083E-03
 -0.24442E-02 -0.43888E-02 -0.61180E-02 -0.79002E-02 -0.94913E-02 -0.10887E-01
 -0.12967E-01 -0.16566E-01 -0.22102E-01 -0.31750E-01 -0.46459E-01 -0.55697E-01
 -0.40792E-01 -0.27742E-07  0.40792E-01  0.55697E-01  0.46459E-01  0.31750E-01
  0.22102E-01  0.16566E-01  0.12967E-01  0.10887E-01  0.94913E-02  0.79002E-02
  0.61180E-02  0.43888E-02  0.24442E-02 -0.30081E-03 -0.41009E-02 -0.89127E-02
 -0.13786E-01 -0.14446E-01 -0.18682E-01 -0.35003E-02  0.11620E-01  0.17185E-01
  0.14042E-01  0.85775E-02  0.39585E-02  0.32098E-04 -0.31374E-02 -0.52290E-02
 -0.67157E-02 -0.82131E-02 -0.97031E-02 -0.11163E-01 -0.13429E-01 -0.17252E-01
 -0.22673E-01 -0.31204E-01 -0.43722E-01 -0.51206E-01 -0.37170E-01 -0.22639E-07
  0.37170E-01  0.51206E-01  0.43722E-01  0.31204E-01  0.22673E-01  0.17252E-01
  0.13429E-01  0.11163E-01  0.97031E-02  0.82131E-02  0.67157E-02  0.52290E-02
  0.31375E-02 -0.32076E-04 -0.39584E-02 -0.85775E-02 -0.14042E-01 -0.17185E-01
 -0.78411E-02  0.34072E-02  0.13272E-01  0.15543E-01  0.11799E-01  0.71166E-02
  0.34472E-02  0.18958E-03 -0.27077E-02 -0.48329E-02 -0.63616E-02 -0.77330E-02
 -0.90288E-02 -0.10291E-01 -0.12284E-01 -0.15802E-01 -0.20553E-01 -0.26634E-01
 -0.34289E-01 -0.37959E-01 -0.26894E-01 -0.15842E-07  0.26893E-01  0.37959E-01
  0.34289E-01  0.26634E-01  0.20553E-01  0.15802E-01  0.12284E-01  0.10291E-01
  0.90288E-02  0.77330E-02  0.63616E-02  0.48329E-02  0.27077E-02 -0.18956E-03
 -0.34471E-02 -0.71166E-02 -0.11799E-01 -0.15543E-01 -0.15543E-02  0.48903E-02
  0.10170E-01  0.11159E-01  0.86855E-02  0.54109E-02  0.25203E-02 -0.14419E-04
 -0.21957E-02 -0.40266E-02 -0.55830E-02 -0.69297E-02 -0.81365E-02 -0.92245E-02
 -0.10624E-01 -0.13193E-01 -0.16918E-01 -0.20904E-01 -0.24304E-01 -0.24426E-01
 -0.16394E-01 -0.92397E-08  0.16394E-01  0.24426E-01  0.24304E-01  0.20904E-01
  0.16918E-01  0.13193E-01  0.10624E-01  0.92245E-02  0.81365E-02  0.69297E-02
  0.55830E-02  0.40266E-02  0.21957E-02  0.14443E-04 -0.25203E-02 -0.54108E-02
 -0.86855E-02 -0.11159E-01  0.72237E-03  0.37769E-02  0.61683E-02  0.68506E-02
  0.58572E-02  0.38380E-02  0.14576E-02 -0.61731E-03 -0.21740E-02 -0.35682E-02
 -0.49099E-02 -0.60659E-02 -0.72133E-02 -0.83669E-02 -0.93646E-02 -0.10769E-01
 -0.13150E-01 -0.15717E-01 -0.16951E-01 -0.15364E-01 -0.95408E-02 -0.51941E-08
  0.95407E-02  0.15364E-01  0.16951E-01  0.15717E-01  0.13150E-01  0.10769E-01
  0.93646E-02  0.83669E-02  0.72133E-02  0.60659E-02  0.49099E-02  0.35682E-02
  0.21741E-02  0.61733E-03 -0.14576E-02 -0.38380E-02 -0.58572E-02 -0.68506E-02
  0.91982E-03  0.24438E-02  0.34126E-02  0.37056E-02  0.33671E-02  0.22671E-02
  0.49456E-03 -0.12931E-02 -0.26760E-02 -0.38588E-02 -0.48345E-02 -0.54473E-02
 -0.61367E-02 -0.71876E-02 -0.81045E-02 -0.88236E-02 -0.99978E-02 -0.11449E-01
 -0.11900E-01 -0.10217E-01 -0.60247E-02 -0.45737E-08  0.60247E-02  0.10217E-01
  0.11900E-01  0.11449E-01  0.99978E-02  0.88236E-02  0.81044E-02  0.71876E-02
  0.61367E-02  0.54473E-02  0.48346E-02  0.38588E-02  0.26760E-02  0.12931E-02
 -0.49453E-03 -0.22671E-02 -0.33671E-02 -0.37056E-02  0.27341E-03  0.11323E-02
  0.16278E-02  0.16343E-02  0.14425E-02  0.99135E-03 -0.83485E-04 -0.16560E-02
 -0.32684E-02 -0.46516E-02 -0.54307E-02 -0.53409E-02 -0.50201E-02 -0.53038E-02
 -0.60301E-02 -0.66939E-02 -0.73646E-02 -0.80427E-02 -0.81153E-02 -0.68766E-02
 -0.40312E-02 -0.52978E-08  0.40312E-02  0.68766E-02  0.81153E-02  0.80427E-02
  0.73646E-02  0.66939E-02  0.60301E-02  0.53038E-02  0.50201E-02  0.53409E-02
  0.54307E-02  0.46516E-02  0.32684E-02  0.16560E-02  0.83506E-04 -0.99133E-03
 -0.14425E-02 -0.16343E-02 -0.61522E-04  0.94604E-04  0.51101E-03  0.67001E-03
  0.58543E-03  0.36004E-03 -0.33733E-03 -0.17272E-02 -0.34994E-02 -0.50309E-02
 -0.55354E-02 -0.46434E-02 -0.32039E-02 -0.25509E-02 -0.29815E-02 -0.38528E-02
 -0.46450E-02 -0.51352E-02 -0.51075E-02 -0.43177E-02 -0.25565E-02 -0.48309E-08
  0.25565E-02  0.43177E-02  0.51075E-02  0.51352E-02  0.46450E-02  0.38528E-02
  0.29815E-02  0.25509E-02  0.32039E-02  0.46434E-02  0.55354E-02  0.50309E-02
  0.34994E-02  0.17272E-02  0.33735E-03 -0.36002E-03 -0.58541E-03 -0.66999E-03
  0.53725E-03 -0.49642E-04  0.22352E-03  0.69390E-03  0.72355E-03  0.28696E-03
 -0.54151E-03 -0.17964E-02 -0.32020E-02 -0.39079E-02 -0.29698E-02 -0.56515E-03
  0.16108E-02  0.20285E-02  0.92662E-03 -0.50415E-03 -0.16194E-02 -0.23323E-02
 -0.25836E-02 -0.22886E-02 -0.13852E-02 -0.29300E-08  0.13852E-02  0.22886E-02
  0.25835E-02  0.23323E-02  0.16194E-02  0.50414E-03 -0.92664E-03 -0.20285E-02
 -0.16108E-02  0.56516E-03  0.29698E-02  0.39079E-02  0.32020E-02  0.17964E-02
  0.54152E-03 -0.28695E-03 -0.72354E-03 -0.69389E-03  0.11971E-03 -0.21065E-03
 -0.23755E-03  0.27854E-03  0.65008E-03 -0.70985E-04 -0.20521E-02 -0.50153E-02
 -0.87017E-02 -0.11713E-01 -0.11375E-01 -0.69428E-02 -0.15264E-02  0.13725E-02
  0.16539E-02  0.12660E-02  0.11453E-02  0.10827E-02  0.90863E-03  0.64616E-03
  0.32657E-03  0.45356E-09 -0.32656E-03 -0.64616E-03 -0.90863E-03 -0.10827E-02
 -0.11453E-02 -0.12660E-02 -0.16540E-02 -0.13725E-02  0.15264E-02  0.69428E-02
  0.11375E-01  0.11713E-01  0.87017E-02  0.50153E-02  0.20521E-02  0.70995E-04
 -0.65007E-03 -0.27853E-03  0.84399E-03 -0.87272E-04 -0.15125E-03  0.45316E-03
  0.50859E-03 -0.72958E-03 -0.30600E-02 -0.65370E-02 -0.11665E-01 -0.17149E-01
 -0.19177E-01 -0.15419E-01 -0.85112E-02 -0.30981E-02 -0.80908E-03 -0.27453E-03
 -0.22513E-03 -0.38528E-03 -0.60147E-03 -0.64181E-03 -0.41816E-03  0.10296E-08
  0.41816E-03  0.64181E-03  0.60147E-03  0.38529E-03  0.22513E-03  0.27453E-03
  0.80908E-03  0.30981E-02  0.85112E-02  0.15419E-01  0.19177E-01  0.17149E-01
  0.11665E-01  0.65370E-02  0.30600E-02  0.72958E-03 -0.50859E-03 -0.45316E-03
  0.51629E-03 -0.35739E-03 -0.16215E-03  0.30992E-03 -0.29758E-04 -0.13475E-02
 -0.33932E-02 -0.67125E-02 -0.12264E-01 -0.19021E-01 -0.23016E-01 -0.20925E-01
 -0.14194E-01 -0.74673E-02 -0.36019E-02 -0.22049E-02 -0.19328E-02 -0.20277E-02
 -0.21196E-02 -0.19097E-02 -0.11809E-02  0.22523E-08  0.11809E-02  0.19097E-02
  0.21196E-02  0.20277E-02  0.19329E-02  0.22049E-02  0.36019E-02  0.74674E-02
  0.14194E-01  0.20925E-01  0.23016E-01  0.19021E-01  0.12264E-01  0.67125E-02
  0.33932E-02  0.13475E-02  0.29755E-04 -0.30993E-03 -0.47464E-04 -0.42003E-03
 -0.18562E-03 -0.12230E-03 -0.55157E-03 -0.13610E-02 -0.28297E-02 -0.57014E-02
 -0.10505E-01 -0.16372E-01 -0.20376E-01 -0.19632E-01 -0.14664E-01 -0.90525E-02
 -0.55774E-02 -0.43064E-02 -0.40733E-02 -0.40631E-02 -0.39393E-02 -0.34030E-02
 -0.20770E-02  0.40614E-08  0.20770E-02  0.34030E-02  0.39393E-02  0.40631E-02
  0.40734E-02  0.43065E-02  0.55774E-02  0.90525E-02  0.14664E-01  0.19632E-01
  0.20376E-01  0.16372E-01  0.10505E-01  0.57014E-02  0.28297E-02  0.13610E-02
  0.55156E-03  0.12229E-03  0.96085E-04  0.25282E-03  0.29041E-03  0.14429E-04
 -0.24664E-03 -0.60703E-03 -0.18123E-02 -0.42093E-02 -0.75303E-02 -0.11191E-01
 -0.13806E-01 -0.13753E-01 -0.11233E-01 -0.83326E-02 -0.66083E-02 -0.60255E-02
 -0.60214E-02 -0.62116E-02 -0.61953E-02 -0.53912E-02 -0.32665E-02  0.55296E-08
  0.32666E-02  0.53912E-02  0.61953E-02  0.62116E-02  0.60215E-02  0.60256E-02
  0.66083E-02  0.83326E-02  0.11233E-01  0.13753E-01  0.13806E-01  0.11191E-01
  0.75303E-02  0.42093E-02  0.18123E-02  0.60701E-03  0.24663E-03 -0.14441E-04
  0.11332E-02  0.17314E-02  0.18261E-02  0.16511E-02  0.14731E-02  0.87361E-03
 -0.61407E-03 -0.25859E-02 -0.45035E-02 -0.64051E-02 -0.79809E-02 -0.84514E-02
 -0.79415E-02 -0.73545E-02 -0.70262E-02 -0.69422E-02 -0.74164E-02 -0.83732E-02
 -0.88595E-02 -0.77823E-02 -0.46524E-02  0.58960E-08  0.46524E-02  0.77823E-02
  0.88595E-02  0.83732E-02  0.74165E-02  0.69422E-02  0.70262E-02  0.73545E-02
  0.79415E-02  0.84514E-02  0.79809E-02  0.64051E-02  0.45035E-02  0.25859E-02
  0.61406E-03 -0.87363E-03 -0.14731E-02 -0.16511E-02  0.24443E-02  0.38592E-02
  0.46933E-02  0.48869E-02  0.43481E-02  0.28855E-02  0.80484E-03 -0.10270E-02
 -0.23762E-02 -0.38063E-02 -0.52728E-02 -0.61629E-02 -0.65802E-02 -0.69420E-02
 -0.72111E-02 -0.77421E-02 -0.92533E-02 -0.11271E-01 -0.12173E-01 -0.10665E-01
 -0.63522E-02  0.45168E-08  0.63522E-02  0.10665E-01  0.12173E-01  0.11271E-01
  0.92533E-02  0.77422E-02  0.72111E-02  0.69420E-02  0.65802E-02  0.61629E-02
  0.52728E-02  0.38063E-02  0.23762E-02  0.10270E-02 -0.80486E-03 -0.28855E-02
 -0.43482E-02 -0.48869E-02  0.37772E-02  0.73980E-02  0.97556E-02  0.97325E-02
  0.77684E-02  0.49746E-02  0.21840E-02 -0.79216E-04 -0.18631E-02 -0.35943E-02
 -0.51297E-02 -0.60449E-02 -0.65672E-02 -0.71097E-02 -0.79225E-02 -0.96379E-02
 -0.12503E-01 -0.15404E-01 -0.16852E-01 -0.15478E-01 -0.97249E-02  0.55507E-09
  0.97249E-02  0.15478E-01  0.16852E-01  0.15404E-01  0.12503E-01  0.96379E-02
  0.79225E-02  0.71097E-02  0.65672E-02  0.60449E-02  0.51297E-02  0.35943E-02
  0.18630E-02  0.79200E-04 -0.21840E-02 -0.49746E-02 -0.77684E-02 -0.97325E-02
  0.48906E-02  0.12930E-01  0.17815E-01  0.16674E-01  0.11830E-01  0.69405E-02
  0.30919E-02 -0.14839E-03 -0.28555E-02 -0.48786E-02 -0.61943E-02 -0.69503E-02
 -0.75024E-02 -0.82503E-02 -0.98000E-02 -0.12744E-01 -0.16638E-01 -0.20637E-01
 -0.24381E-01 -0.25131E-01 -0.17189E-01 -0.60484E-08  0.17189E-01  0.25131E-01
  0.24381E-01  0.20637E-01  0.16638E-01  0.12744E-01  0.98001E-02  0.82503E-02
  0.75025E-02  0.69503E-02  0.61943E-02  0.48786E-02  0.28555E-02  0.14837E-03
 -0.30919E-02 -0.69405E-02 -0.11830E-01 -0.16674E-01  0.34077E-02  0.17362E-01
  0.26218E-01  0.24544E-01  0.16531E-01  0.88537E-02  0.33629E-02 -0.10100E-02
 -0.44051E-02 -0.64632E-02 -0.75923E-02 -0.84380E-02 -0.92213E-02 -0.10177E-01
 -0.12150E-01 -0.15687E-01 -0.20330E-01 -0.26687E-01 -0.35577E-01 -0.40640E-01
 -0.29276E-01 -0.13557E-07  0.29276E-01  0.40640E-01  0.35577E-01  0.26687E-01
  0.20330E-01  0.15687E-01  0.12150E-01  0.10177E-01  0.92214E-02  0.84380E-02
  0.75923E-02  0.64632E-02  0.44051E-02  0.10099E-02 -0.33629E-02 -0.88537E-02
 -0.16531E-01 -0.24544E-01 -0.34996E-02  0.15169E-01  0.28862E-01  0.29100E-01
  0.19956E-01  0.10085E-01  0.29805E-02 -0.20558E-02 -0.55171E-02 -0.75350E-02
 -0.88198E-02 -0.99251E-02 -0.10774E-01 -0.11563E-01 -0.13364E-01 -0.16901E-01
 -0.22354E-01 -0.31966E-01 -0.46892E-01 -0.56418E-01 -0.41401E-01 -0.19075E-07
  0.41401E-01  0.56417E-01  0.46892E-01  0.31966E-01  0.22354E-01  0.16901E-01
  0.13364E-01  0.11563E-01  0.10774E-01  0.99251E-02  0.88198E-02  0.75350E-02
  0.55171E-02  0.20558E-02 -0.29806E-02 -0.10085E-01 -0.19956E-01 -0.29100E-01
 -0.13393E-01  0.59430E-02  0.22908E-01  0.26822E-01  0.19532E-01  0.96746E-02
  0.23009E-02 -0.24402E-02 -0.55835E-02 -0.78248E-02 -0.95421E-02 -0.10730E-01
 -0.11279E-01 -0.11630E-01 -0.12953E-01 -0.16107E-01 -0.21811E-01 -0.33009E-01
 -0.50655E-01 -0.62105E-01 -0.45824E-01 -0.20281E-07  0.45824E-01  0.62105E-01
  0.50655E-01  0.33009E-01  0.21811E-01  0.16107E-01  0.12953E-01  0.11630E-01
  0.11279E-01  0.10730E-01  0.95421E-02  0.78248E-02  0.55835E-02  0.24402E-02
 -0.23009E-02 -0.96746E-02 -0.19532E-01 -0.26822E-01 -0.18683E-01 -0.30533E-02
  0.13212E-01  0.19621E-01  0.15642E-01  0.81831E-02  0.23702E-02 -0.14100E-02
 -0.45051E-02 -0.74077E-02 -0.95920E-02 -0.10653E-01 -0.10902E-01 -0.11022E-01
 -0.11892E-01 -0.14217E-01 -0.18699E-01 -0.27828E-01 -0.42550E-01 -0.52348E-01
 -0.38773E-01 -0.16895E-07  0.38773E-01  0.52348E-01  0.42550E-01  0.27828E-01
  0.18699E-01  0.14217E-01  0.11892E-01  0.11022E-01  0.10902E-01  0.10653E-01
  0.95919E-02  0.74077E-02  0.45051E-02  0.14100E-02 -0.23702E-02 -0.81831E-02
 -0.15642E-01 -0.19621E-01 -0.15141E-01 -0.50556E-02  0.69705E-02  0.13085E-01
  0.11799E-01  0.75853E-02  0.40044E-02  0.96487E-03 -0.25935E-02 -0.62714E-02
 -0.88378E-02 -0.10037E-01 -0.10571E-01 -0.10842E-01 -0.11111E-01 -0.11976E-01
 -0.14044E-01 -0.18770E-01 -0.27089E-01 -0.32955E-01 -0.24500E-01 -0.10804E-07
  0.24500E-01  0.32955E-01  0.27089E-01  0.18770E-01  0.14044E-01  0.11976E-01
  0.11111E-01  0.10842E-01  0.10571E-01  0.10037E-01  0.88377E-02  0.62714E-02
  0.25935E-02 -0.96489E-03 -0.40044E-02 -0.75853E-02 -0.11799E-01 -0.13085E-01
 -0.65082E-02 -0.87304E-03  0.63475E-02  0.10675E-01  0.10791E-01  0.90305E-02
  0.70872E-02  0.43896E-02  0.41385E-03 -0.38739E-02 -0.73419E-02 -0.99893E-02
 -0.12008E-01 -0.12708E-01 -0.11737E-01 -0.10172E-01 -0.93370E-02 -0.10090E-01
 -0.12748E-01 -0.14783E-01 -0.10889E-01 -0.44568E-08  0.10889E-01  0.14783E-01
  0.12748E-01  0.10090E-01  0.93370E-02  0.10172E-01  0.11737E-01  0.12708E-01
  0.12008E-01  0.99893E-02  0.73419E-02  0.38739E-02 -0.41388E-03 -0.43897E-02
 -0.70873E-02 -0.90305E-02 -0.10791E-01 -0.10675E-01  0.14345E-02  0.48001E-02
  0.90122E-02  0.11900E-01  0.12560E-01  0.12276E-01  0.11677E-01  0.96669E-02
  0.56138E-02  0.19312E-03 -0.59938E-02 -0.12497E-01 -0.17670E-01 -0.19172E-01