       #
       # Generated by the Wannier90 code http://www.wannier.org
       # On 23Sep2015 at 21:20:35 
       #
CRYSTAL
PRIMVEC
   3.8425000   0.0000000   0.0000000
   0.0000000   3.8425000   0.0000000
   0.0000000   0.0000000   3.8425000
CONVVEC
   3.8425000   0.0000000   0.0000000
   0.0000000   3.8425000   0.0000000
   0.0000000   0.0000000   3.8425000
PRIMCOORD
     5  1
V       0.0000000   0.0000000   0.0000000
Sr      1.9212500   1.9212500   1.9212500
O       1.9212500   0.0000000   0.0000000
O       0.0000000   1.9212500   0.0000000
O       0.0000000   0.0000000   1.9212500


BEGIN_BLOCK_DATAGRID_3D
3D_field
BEGIN_DATAGRID_3D_UNKNOWN
    40    40    40
   -4.034625   -4.034625   -4.034625
   7.4928749   0.0000000   0.0000000
   0.0000000   7.4928749   0.0000000
   0.0000000   0.0000000   7.4928749
 -0.17268E-08  0.57417E-03  0.11131E-02  0.14010E-02  0.15788E-02  0.18392E-02
  0.19896E-02  0.17778E-02  0.66183E-03 -0.28643E-02 -0.96807E-02 -0.17099E-01
 -0.19963E-01 -0.16144E-01 -0.89207E-02 -0.26897E-02  0.12643E-02  0.35833E-02
  0.44038E-02  0.38714E-02  0.29594E-02  0.25707E-02  0.29594E-02  0.38714E-02
  0.44038E-02  0.35833E-02  0.12643E-02 -0.26897E-02 -0.89207E-02 -0.16144E-01
 -0.19963E-01 -0.17099E-01 -0.96807E-02 -0.28643E-02  0.66183E-03  0.17778E-02
  0.19896E-02  0.18392E-02  0.15788E-02  0.14010E-02 -0.57418E-03 -0.35874E-09
  0.54726E-03  0.88208E-03  0.12888E-02  0.20009E-02  0.26942E-02  0.32014E-02
  0.34474E-02  0.20253E-02 -0.29433E-02 -0.10154E-01 -0.14700E-01 -0.13259E-01
 -0.77318E-02 -0.21104E-02  0.19190E-02  0.45809E-02  0.58298E-02  0.56491E-02
  0.48891E-02  0.45220E-02  0.48891E-02  0.56491E-02  0.58298E-02  0.45809E-02
  0.19190E-02 -0.21104E-02 -0.77318E-02 -0.13259E-01 -0.14700E-01 -0.10154E-01
 -0.29433E-02  0.20253E-02  0.34474E-02  0.32014E-02  0.26942E-02  0.20009E-02
  0.12888E-02  0.88208E-03 -0.11131E-02 -0.54726E-03  0.74973E-09  0.41399E-03
  0.10578E-02  0.20769E-02  0.30008E-02  0.38241E-02  0.51260E-02  0.60686E-02
  0.42129E-02 -0.92052E-03 -0.58879E-02 -0.69348E-02 -0.41108E-02 -0.76601E-04
  0.34248E-02  0.60542E-02  0.75201E-02  0.76877E-02  0.71973E-02  0.69172E-02
  0.71973E-02  0.76877E-02  0.75201E-02  0.60542E-02  0.34248E-02 -0.76601E-04
 -0.41108E-02 -0.69348E-02 -0.58879E-02 -0.92052E-03  0.42129E-02  0.60686E-02
  0.51260E-02  0.38241E-02  0.30008E-02  0.20769E-02  0.10578E-02  0.41399E-03
 -0.14010E-02 -0.88208E-03 -0.41399E-03  0.33109E-09  0.69064E-03  0.16976E-02
  0.25866E-02  0.34597E-02  0.50903E-02  0.71079E-02  0.73650E-02  0.45949E-02
  0.67177E-03 -0.13164E-02 -0.42332E-03  0.20306E-02  0.46687E-02  0.69157E-02
  0.84133E-02  0.89754E-02  0.89290E-02  0.88300E-02  0.89290E-02  0.89754E-02
  0.84133E-02  0.69157E-02  0.46687E-02  0.20306E-02 -0.42332E-03 -0.13164E-02
  0.67177E-03  0.45949E-02  0.73650E-02  0.71079E-02  0.50902E-02  0.34597E-02
  0.25866E-02  0.16976E-02  0.69064E-03 -0.18905E-08 -0.15788E-02 -0.12888E-02
 -0.10578E-02 -0.69064E-03 -0.23334E-09  0.92413E-03  0.18268E-02  0.28187E-02
  0.43033E-02  0.59685E-02  0.65174E-02  0.51468E-02  0.28291E-02  0.13899E-02
  0.16563E-02  0.31150E-02  0.49640E-02  0.67584E-02  0.82337E-02  0.91837E-02
  0.96155E-02  0.97214E-02  0.96155E-02  0.91837E-02  0.82337E-02  0.67584E-02
  0.49640E-02  0.31150E-02  0.16563E-02  0.13899E-02  0.28291E-02  0.51468E-02
  0.65174E-02  0.59685E-02  0.43033E-02  0.28187E-02  0.18267E-02  0.92413E-03
 -0.36224E-08 -0.69064E-03 -0.18392E-02 -0.20009E-02 -0.20769E-02 -0.16976E-02
 -0.92413E-03 -0.32094E-09  0.10045E-02  0.21630E-02  0.33948E-02  0.42830E-02
  0.43483E-02  0.35872E-02  0.25982E-02  0.20918E-02  0.23704E-02  0.32770E-02
  0.45039E-02  0.58440E-02  0.71537E-02  0.82260E-02  0.88768E-02  0.90824E-02
  0.88768E-02  0.82260E-02  0.71537E-02  0.58440E-02  0.45039E-02  0.32770E-02
  0.23704E-02  0.20918E-02  0.25982E-02  0.35872E-02  0.43483E-02  0.42830E-02
  0.33948E-02  0.21630E-02  0.10045E-02 -0.43465E-08 -0.92413E-03 -0.16976E-02
 -0.19896E-02 -0.26942E-02 -0.30008E-02 -0.25866E-02 -0.18268E-02 -0.10045E-02
 -0.19851E-09  0.11903E-02  0.21948E-02  0.26523E-02  0.25909E-02  0.23407E-02
  0.21891E-02  0.22310E-02  0.24851E-02  0.29601E-02  0.36228E-02  0.44350E-02
  0.53283E-02  0.60946E-02  0.65284E-02  0.66478E-02  0.65284E-02  0.60946E-02
  0.53283E-02  0.44350E-02  0.36228E-02  0.29602E-02  0.24851E-02  0.22311E-02
  0.21891E-02  0.23407E-02  0.25909E-02  0.26523E-02  0.21948E-02  0.11903E-02
 -0.39587E-08 -0.10045E-02 -0.18268E-02 -0.25866E-02 -0.17778E-02 -0.32014E-02
 -0.38241E-02 -0.34597E-02 -0.28187E-02 -0.21630E-02 -0.11903E-02 -0.75483E-10
  0.88354E-03  0.12942E-02  0.15197E-02  0.17678E-02  0.19806E-02  0.20811E-02
  0.21278E-02  0.22159E-02  0.23939E-02  0.26767E-02  0.29403E-02  0.29011E-02
  0.25357E-02  0.23051E-02  0.25357E-02  0.29011E-02  0.29403E-02  0.26767E-02
  0.23939E-02  0.22159E-02  0.21278E-02  0.20811E-02  0.19806E-02  0.17678E-02
  0.15197E-02  0.12942E-02  0.88354E-03 -0.28074E-08 -0.11903E-02 -0.21630E-02
 -0.28187E-02 -0.34597E-02 -0.66183E-03 -0.34474E-02 -0.51260E-02 -0.50903E-02
 -0.43034E-02 -0.33948E-02 -0.21948E-02 -0.88354E-03  0.98707E-11  0.47398E-03
  0.92684E-03  0.13582E-02  0.15127E-02  0.13957E-02  0.12115E-02  0.10656E-02
  0.96119E-03  0.78878E-03  0.11769E-03 -0.14996E-02 -0.35561E-02 -0.45367E-02
 -0.35561E-02 -0.14996E-02  0.11769E-03  0.78879E-03  0.96119E-03  0.10656E-02
  0.12115E-02  0.13957E-02  0.15127E-02  0.13582E-02  0.92684E-03  0.47398E-03
 -0.14999E-08 -0.88354E-03 -0.21948E-02 -0.33948E-02 -0.43034E-02 -0.50903E-02
  0.28643E-02 -0.20253E-02 -0.60686E-02 -0.71079E-02 -0.59685E-02 -0.42830E-02
 -0.26523E-02 -0.12942E-02 -0.47398E-03  0.53970E-10  0.46951E-03  0.79689E-03
  0.73345E-03  0.43324E-03  0.17095E-03 -0.95897E-05 -0.22989E-03 -0.90664E-03
 -0.29799E-02 -0.70308E-02 -0.11642E-01 -0.13738E-01 -0.11642E-01 -0.70308E-02
 -0.29799E-02 -0.90664E-03 -0.22989E-03 -0.95888E-05  0.17095E-03  0.43324E-03
  0.73345E-03  0.79689E-03  0.46951E-03 -0.34193E-09 -0.47398E-03 -0.12942E-02
 -0.26523E-02 -0.42830E-02 -0.59685E-02 -0.71079E-02  0.96807E-02  0.29433E-02
 -0.42129E-02 -0.73650E-02 -0.65174E-02 -0.43483E-02 -0.25909E-02 -0.15197E-02
 -0.92684E-03 -0.46951E-03  0.47776E-10  0.23683E-03  0.99089E-04 -0.16980E-03
 -0.35551E-03 -0.51688E-03 -0.89402E-03 -0.21979E-02 -0.57804E-02 -0.12220E-01
 -0.19212E-01 -0.22325E-01 -0.19212E-01 -0.12220E-01 -0.57804E-02 -0.21979E-02
 -0.89402E-03 -0.51688E-03 -0.35551E-03 -0.16980E-03  0.99089E-04  0.23683E-03
  0.34939E-09 -0.46951E-03 -0.92684E-03 -0.15197E-02 -0.25909E-02 -0.43483E-02
 -0.65174E-02 -0.73650E-02  0.17099E-01  0.10154E-01  0.92052E-03 -0.45949E-02
 -0.51468E-02 -0.35872E-02 -0.23407E-02 -0.17678E-02 -0.13582E-02 -0.79689E-03
 -0.23683E-03  0.19263E-09 -0.82309E-04 -0.22384E-03 -0.35854E-03 -0.63887E-03
 -0.13084E-02 -0.30978E-02 -0.73810E-02 -0.14648E-01 -0.22347E-01 -0.25742E-01
 -0.22347E-01 -0.14648E-01 -0.73810E-02 -0.30978E-02 -0.13084E-02 -0.63887E-03
 -0.35854E-03 -0.22384E-03 -0.82310E-04  0.19816E-09 -0.23683E-03 -0.79689E-03
 -0.13582E-02 -0.17678E-02 -0.23407E-02 -0.35872E-02 -0.51468E-02 -0.45949E-02
  0.19963E-01  0.14700E-01  0.58879E-02 -0.67177E-03 -0.28291E-02 -0.25982E-02
 -0.21891E-02 -0.19806E-02 -0.15127E-02 -0.73344E-03 -0.99088E-04  0.82310E-04
  0.31190E-09 -0.98313E-04 -0.30609E-03 -0.82014E-03 -0.17511E-02 -0.35387E-02
 -0.71916E-02 -0.13133E-01 -0.19389E-01 -0.22151E-01 -0.19389E-01 -0.13133E-01
 -0.71916E-02 -0.35387E-02 -0.17511E-02 -0.82014E-03 -0.30609E-03 -0.98314E-04
 -0.40638E-09  0.82310E-04 -0.99088E-04 -0.73344E-03 -0.15127E-02 -0.19806E-02
 -0.21891E-02 -0.25982E-02 -0.28291E-02 -0.67177E-03  0.16144E-01  0.13259E-01
  0.69348E-02  0.13164E-02 -0.13899E-02 -0.20918E-02 -0.22310E-02 -0.20811E-02
 -0.13957E-02 -0.43324E-03  0.16980E-03  0.22384E-03  0.98314E-04  0.15616E-09
 -0.29203E-03 -0.95960E-03 -0.19346E-02 -0.32829E-02 -0.55235E-02 -0.90408E-02
 -0.12812E-01 -0.14505E-01 -0.12812E-01 -0.90408E-02 -0.55235E-02 -0.32829E-02
 -0.19346E-02 -0.95960E-03 -0.29203E-03 -0.73642E-09  0.98313E-04  0.22384E-03
  0.16980E-03 -0.43324E-03 -0.13957E-02 -0.20811E-02 -0.22310E-02 -0.20918E-02
 -0.13899E-02  0.13164E-02  0.89207E-02  0.77318E-02  0.41108E-02  0.42333E-03
 -0.16563E-02 -0.23704E-02 -0.24851E-02 -0.21278E-02 -0.12115E-02 -0.17095E-03
  0.35551E-03  0.35854E-03  0.30609E-03  0.29203E-03  0.14631E-10 -0.68081E-03
 -0.15447E-02 -0.24348E-02 -0.35250E-02 -0.51343E-02 -0.69459E-02 -0.77909E-02
 -0.69459E-02 -0.51343E-02 -0.35250E-02 -0.24348E-02 -0.15447E-02 -0.68081E-03
 -0.88016E-09  0.29203E-03  0.30609E-03  0.35854E-03  0.35551E-03 -0.17095E-03
 -0.12115E-02 -0.21278E-02 -0.24851E-02 -0.23704E-02 -0.16563E-02  0.42333E-03
  0.26897E-02  0.21104E-02  0.76603E-04 -0.20306E-02 -0.31150E-02 -0.32770E-02
 -0.29601E-02 -0.22159E-02 -0.10656E-02  0.95906E-05  0.51688E-03  0.63887E-03
  0.82014E-03  0.95960E-03  0.68081E-03  0.91120E-10 -0.78910E-03 -0.15080E-02
 -0.22169E-02 -0.31411E-02 -0.41945E-02 -0.46992E-02 -0.41945E-02 -0.31412E-02
 -0.22169E-02 -0.15080E-02 -0.78910E-03 -0.68487E-09  0.68081E-03  0.95960E-03
  0.82014E-03  0.63887E-03  0.51688E-03  0.95905E-05 -0.10656E-02 -0.22159E-02
 -0.29601E-02 -0.32770E-02 -0.31150E-02 -0.20306E-02 -0.12643E-02 -0.19190E-02
 -0.34248E-02 -0.46687E-02 -0.49640E-02 -0.45039E-02 -0.36228E-02 -0.23939E-02
 -0.96119E-03  0.22989E-03  0.89402E-03  0.13084E-02  0.17511E-02  0.19346E-02
  0.15447E-02  0.78910E-03  0.15702E-09 -0.75966E-03 -0.16018E-02 -0.26733E-02
 -0.38098E-02 -0.43356E-02 -0.38098E-02 -0.26733E-02 -0.16018E-02 -0.75966E-03
 -0.35446E-10  0.78910E-03  0.15447E-02  0.19346E-02  0.17511E-02  0.13084E-02
  0.89402E-03  0.22989E-03 -0.96119E-03 -0.23939E-02 -0.36228E-02 -0.45039E-02
 -0.49640E-02 -0.46687E-02 -0.35833E-02 -0.45809E-02 -0.60542E-02 -0.69157E-02
 -0.67584E-02 -0.58440E-02 -0.44350E-02 -0.26767E-02 -0.78878E-03  0.90664E-03
  0.21979E-02  0.30978E-02  0.35387E-02  0.32829E-02  0.24348E-02  0.15080E-02
  0.75966E-03 -0.54693E-10 -0.10226E-02 -0.24086E-02 -0.38410E-02 -0.44878E-02
 -0.38410E-02 -0.24086E-02 -0.10226E-02 -0.29573E-09  0.75966E-03  0.15080E-02
  0.24348E-02  0.32829E-02  0.35387E-02  0.30978E-02  0.21979E-02  0.90664E-03
 -0.78878E-03 -0.26767E-02 -0.44350E-02 -0.58440E-02 -0.67584E-02 -0.69157E-02
 -0.44038E-02 -0.58298E-02 -0.75201E-02 -0.84133E-02 -0.82337E-02 -0.71537E-02
 -0.53283E-02 -0.29403E-02 -0.11769E-03  0.29799E-02  0.57804E-02  0.73810E-02
  0.71916E-02  0.55235E-02  0.35250E-02  0.22169E-02  0.16018E-02  0.10226E-02
 -0.40754E-09 -0.15432E-02 -0.31621E-02 -0.38907E-02 -0.31621E-02 -0.15432E-02
 -0.85920E-09  0.10226E-02  0.16018E-02  0.22169E-02  0.35250E-02  0.55235E-02
  0.71916E-02  0.73810E-02  0.57804E-02  0.29799E-02 -0.11769E-03 -0.29403E-02
 -0.53283E-02 -0.71537E-02 -0.82337E-02 -0.84133E-02 -0.38714E-02 -0.56491E-02
 -0.76877E-02 -0.89754E-02 -0.91837E-02 -0.82260E-02 -0.60946E-02 -0.29011E-02
  0.14996E-02  0.70308E-02  0.12220E-01  0.14648E-01  0.13133E-01  0.90408E-02
  0.51343E-02  0.31412E-02  0.26733E-02  0.24086E-02  0.15432E-02 -0.46634E-09
 -0.16763E-02 -0.24350E-02 -0.16763E-02  0.48246E-11  0.15432E-02  0.24086E-02
  0.26733E-02  0.31412E-02  0.51343E-02  0.90408E-02  0.13133E-01  0.14648E-01
  0.12220E-01  0.70308E-02  0.14996E-02 -0.29011E-02 -0.60946E-02 -0.82260E-02
 -0.91837E-02 -0.89754E-02 -0.29594E-02 -0.48891E-02 -0.71973E-02 -0.89290E-02
 -0.96155E-02 -0.88768E-02 -0.65284E-02 -0.25357E-02  0.35561E-02  0.11642E-01
  0.19212E-01  0.22347E-01  0.19389E-01  0.12812E-01  0.69459E-02  0.41945E-02
  0.38098E-02  0.38410E-02  0.31621E-02  0.16763E-02  0.27286E-09 -0.76428E-03
  0.10290E-08  0.16763E-02  0.31621E-02  0.38410E-02  0.38098E-02  0.41945E-02
  0.69459E-02  0.12812E-01  0.19389E-01  0.22347E-01  0.19212E-01  0.11642E-01
  0.35561E-02 -0.25357E-02 -0.65284E-02 -0.88768E-02 -0.96155E-02 -0.89290E-02
 -0.25707E-02 -0.45220E-02 -0.69172E-02 -0.88300E-02 -0.97214E-02 -0.90824E-02
 -0.66477E-02 -0.23051E-02  0.45367E-02  0.13738E-01  0.22325E-01  0.25742E-01
  0.22151E-01  0.14505E-01  0.77909E-02  0.46992E-02  0.43356E-02  0.44878E-02
  0.38907E-02  0.24350E-02  0.76429E-03  0.95654E-09  0.76429E-03  0.24350E-02
  0.38907E-02  0.44878E-02  0.43356E-02  0.46992E-02  0.77909E-02  0.14505E-01
  0.22151E-01  0.25742E-01  0.22325E-01  0.13738E-01  0.45367E-02 -0.23051E-02
 -0.66478E-02 -0.90824E-02 -0.97214E-02 -0.88300E-02 -0.29594E-02 -0.48891E-02
 -0.71973E-02 -0.89290E-02 -0.96155E-02 -0.88768E-02 -0.65284E-02 -0.25357E-02
  0.35561E-02  0.11642E-01  0.19212E-01  0.22347E-01  0.19389E-01  0.12812E-01
  0.69459E-02  0.41945E-02  0.38098E-02  0.38410E-02  0.31621E-02  0.16763E-02
  0.19011E-09 -0.76429E-03  0.37085E-09  0.16763E-02  0.31621E-02  0.38410E-02
  0.38098E-02  0.41945E-02  0.69459E-02  0.12812E-01  0.19389E-01  0.22347E-01
  0.19212E-01  0.11642E-01  0.35561E-02 -0.25357E-02 -0.65284E-02 -0.88768E-02
 -0.96155E-02 -0.89290E-02 -0.38714E-02 -0.56491E-02 -0.76877E-02 -0.89754E-02
 -0.91837E-02 -0.82260E-02 -0.60946E-02 -0.29011E-02  0.14996E-02  0.70308E-02
  0.12220E-01  0.14648E-01  0.13133E-01  0.90408E-02  0.51343E-02  0.31412E-02
  0.26733E-02  0.24086E-02  0.15432E-02  0.19632E-09 -0.16763E-02 -0.24350E-02
 -0.16763E-02 -0.47026E-09  0.15432E-02  0.24086E-02  0.26733E-02  0.31412E-02
  0.51343E-02  0.90408E-02  0.13133E-01  0.14648E-01  0.12220E-01  0.70308E-02
  0.14996E-02 -0.29011E-02 -0.60946E-02 -0.82260E-02 -0.91837E-02 -0.89754E-02
 -0.44038E-02 -0.58298E-02 -0.75201E-02 -0.84133E-02 -0.82337E-02 -0.71537E-02
 -0.53283E-02 -0.29403E-02 -0.11769E-03  0.29799E-02  0.57804E-02  0.73810E-02
  0.71916E-02  0.55235E-02  0.35250E-02  0.22169E-02  0.16018E-02  0.10226E-02
  0.11477E-08 -0.15432E-02 -0.31621E-02 -0.38907E-02 -0.31621E-02 -0.15432E-02
 -0.50518E-09  0.10226E-02  0.16018E-02  0.22169E-02  0.35250E-02  0.55235E-02
  0.71916E-02  0.73810E-02  0.57804E-02  0.29799E-02 -0.11769E-03 -0.29403E-02
 -0.53283E-02 -0.71537E-02 -0.82337E-02 -0.84133E-02 -0.35833E-02 -0.45809E-02
 -0.60542E-02 -0.69157E-02 -0.67584E-02 -0.58440E-02 -0.44350E-02 -0.26767E-02
 -0.78879E-03  0.90664E-03  0.21979E-02  0.30978E-02  0.35387E-02  0.32829E-02
  0.24348E-02  0.15080E-02  0.75966E-03  0.90891E-09 -0.10226E-02 -0.24086E-02
 -0.38410E-02 -0.44878E-02 -0.38410E-02 -0.24086E-02 -0.10226E-02 -0.91546E-10
  0.75966E-03  0.15080E-02  0.24348E-02  0.32829E-02  0.35387E-02  0.30978E-02
  0.21979E-02  0.90664E-03 -0.78878E-03 -0.26767E-02 -0.44350E-02 -0.58440E-02
 -0.67584E-02 -0.69157E-02 -0.12643E-02 -0.19190E-02 -0.34248E-02 -0.46687E-02
 -0.49640E-02 -0.45039E-02 -0.36228E-02 -0.23939E-02 -0.96119E-03  0.22989E-03
  0.89402E-03  0.13084E-02  0.17511E-02  0.19346E-02  0.15447E-02  0.78910E-03
  0.30364E-09 -0.75966E-03 -0.16018E-02 -0.26733E-02 -0.38098E-02 -0.43356E-02
 -0.38098E-02 -0.26733E-02 -0.16018E-02 -0.75966E-03  0.15878E-09  0.78910E-03
  0.15447E-02  0.19346E-02  0.17511E-02  0.13084E-02  0.89402E-03  0.22989E-03
 -0.96119E-03 -0.23939E-02 -0.36228E-02 -0.45039E-02 -0.49640E-02 -0.46687E-02
  0.26897E-02  0.21104E-02  0.76599E-04 -0.20306E-02 -0.31150E-02 -0.32770E-02
 -0.29602E-02 -0.22159E-02 -0.10656E-02  0.95885E-05  0.51688E-03  0.63887E-03
  0.82014E-03  0.95960E-03  0.68081E-03  0.77296E-09 -0.78910E-03 -0.15080E-02
 -0.22169E-02 -0.31412E-02 -0.41945E-02 -0.46992E-02 -0.41945E-02 -0.31412E-02
 -0.22169E-02 -0.15080E-02 -0.78910E-03  0.45454E-10  0.68081E-03  0.95960E-03
  0.82014E-03  0.63887E-03  0.51688E-03  0.95897E-05 -0.10656E-02 -0.22159E-02
 -0.29602E-02 -0.32770E-02 -0.31150E-02 -0.20306E-02  0.89207E-02  0.77318E-02
  0.41108E-02  0.42332E-03 -0.16563E-02 -0.23704E-02 -0.24851E-02 -0.21278E-02
 -0.12115E-02 -0.17095E-03  0.35551E-03  0.35854E-03  0.30609E-03  0.29203E-03
  0.11185E-08 -0.68081E-03 -0.15447E-02 -0.24348E-02 -0.35250E-02 -0.51343E-02
 -0.69459E-02 -0.77909E-02 -0.69459E-02 -0.51343E-02 -0.35250E-02 -0.24348E-02
 -0.15447E-02 -0.68081E-03 -0.78850E-10  0.29203E-03  0.30609E-03  0.35854E-03
  0.35551E-03 -0.17095E-03 -0.12115E-02 -0.21278E-02 -0.24851E-02 -0.23704E-02
 -0.16563E-02  0.42332E-03  0.16144E-01  0.13259E-01  0.69348E-02  0.13164E-02
 -0.13899E-02 -0.20918E-02 -0.22311E-02 -0.20811E-02 -0.13957E-02 -0.43324E-03
  0.16980E-03  0.22384E-03  0.98314E-04  0.86113E-09 -0.29203E-03 -0.95960E-03
 -0.19346E-02 -0.32829E-02 -0.55235E-02 -0.90408E-02 -0.12812E-01 -0.14505E-01
 -0.12812E-01 -0.90408E-02 -0.55235E-02 -0.32829E-02 -0.19346E-02 -0.95960E-03
 -0.29203E-03  0.47238E-10  0.98314E-04  0.22384E-03  0.16980E-03 -0.43324E-03
 -0.13957E-02 -0.20811E-02 -0.22310E-02 -0.20918E-02 -0.13899E-02  0.13164E-02
  0.19963E-01  0.14700E-01  0.58879E-02 -0.67177E-03 -0.28291E-02 -0.25982E-02
 -0.21891E-02 -0.19806E-02 -0.15127E-02 -0.73345E-03 -0.99088E-04  0.82310E-04
  0.38946E-09 -0.98313E-04 -0.30609E-03 -0.82014E-03 -0.17511E-02 -0.35387E-02
 -0.71916E-02 -0.13133E-01 -0.19389E-01 -0.22151E-01 -0.19389E-01 -0.13133E-01
 -0.71916E-02 -0.35387E-02 -0.17511E-02 -0.82014E-03 -0.30609E-03 -0.98314E-04
  0.23193E-09  0.82310E-04 -0.99088E-04 -0.73344E-03 -0.15127E-02 -0.19806E-02
 -0.21891E-02 -0.25982E-02 -0.28291E-02 -0.67177E-03  0.17099E-01  0.10154E-01
  0.92052E-03 -0.45949E-02 -0.51468E-02 -0.35872E-02 -0.23407E-02 -0.17678E-02
 -0.13582E-02 -0.79689E-03 -0.23683E-03  0.18522E-09 -0.82310E-04 -0.22384E-03
 -0.35854E-03 -0.63887E-03 -0.13084E-02 -0.30978E-02 -0.73810E-02 -0.14648E-01
 -0.22347E-01 -0.25742E-01 -0.22347E-01 -0.14648E-01 -0.73810E-02 -0.30978E-02
 -0.13084E-02 -0.63887E-03 -0.35854E-03 -0.22384E-03 -0.82310E-04  0.15825E-09
 -0.23683E-03 -0.79689E-03 -0.13582E-02 -0.17678E-02 -0.23407E-02 -0.35872E-02
 -0.51468E-02 -0.45949E-02  0.96807E-02  0.29433E-02 -0.42129E-02 -0.73650E-02
 -0.65174E-02 -0.43483E-02 -0.25909E-02 -0.15197E-02 -0.92684E-03 -0.46951E-03
  0.40782E-09  0.23683E-03  0.99088E-04 -0.16980E-03 -0.35551E-03 -0.51688E-03
 -0.89402E-03 -0.21979E-02 -0.57804E-02 -0.12220E-01 -0.19212E-01 -0.22325E-01
 -0.19212E-01 -0.12220E-01 -0.57804E-02 -0.21979E-02 -0.89402E-03 -0.51688E-03
 -0.35551E-03 -0.16980E-03  0.99088E-04  0.23683E-03  0.48397E-10 -0.46951E-03
 -0.92684E-03 -0.15197E-02 -0.25909E-02 -0.43483E-02 -0.65174E-02 -0.73650E-02
  0.28643E-02 -0.20253E-02 -0.60686E-02 -0.71079E-02 -0.59685E-02 -0.42830E-02
 -0.26523E-02 -0.12942E-02 -0.47398E-03  0.11121E-08  0.46951E-03  0.79689E-03
  0.73344E-03  0.43324E-03  0.17095E-03 -0.95911E-05 -0.22989E-03 -0.90664E-03
 -0.29799E-02 -0.70308E-02 -0.11642E-01 -0.13738E-01 -0.11642E-01 -0.70308E-02
 -0.29799E-02 -0.90664E-03 -0.22989E-03 -0.95888E-05  0.17095E-03  0.43324E-03
  0.73345E-03  0.79689E-03  0.46951E-03  0.73700E-10 -0.47398E-03 -0.12942E-02
 -0.26523E-02 -0.42830E-02 -0.59685E-02 -0.71079E-02 -0.66183E-03 -0.34474E-02
 -0.51260E-02 -0.50902E-02 -0.43033E-02 -0.33948E-02 -0.21948E-02 -0.88354E-03
  0.23123E-08  0.47398E-03  0.92684E-03  0.13582E-02  0.15127E-02  0.13957E-02
  0.12115E-02  0.10656E-02  0.96119E-03  0.78878E-03  0.11769E-03 -0.14996E-02
 -0.35561E-02 -0.45367E-02 -0.35561E-02 -0.14996E-02  0.11769E-03  0.78879E-03
  0.96119E-03  0.10656E-02  0.12115E-02  0.13957E-02  0.15127E-02  0.13582E-02
  0.92684E-03  0.47398E-03  0.27541E-10 -0.88354E-03 -0.21948E-02 -0.33948E-02
 -0.43034E-02 -0.50903E-02 -0.17778E-02 -0.32014E-02 -0.38241E-02 -0.34597E-02
 -0.28187E-02 -0.21630E-02 -0.11903E-02  0.37769E-08  0.88354E-03  0.12942E-02
  0.15197E-02  0.17678E-02  0.19806E-02  0.20811E-02  0.21278E-02  0.22159E-02
  0.23939E-02  0.26767E-02  0.29403E-02  0.29011E-02  0.25357E-02  0.23051E-02
  0.25357E-02  0.29011E-02  0.29403E-02  0.26767E-02  0.23939E-02  0.22159E-02
  0.21278E-02  0.20811E-02  0.19806E-02  0.17678E-02  0.15197E-02  0.12942E-02
  0.88354E-03 -0.67698E-10 -0.11903E-02 -0.21630E-02 -0.28187E-02 -0.34597E-02
 -0.19896E-02 -0.26942E-02 -0.30008E-02 -0.25866E-02 -0.18267E-02 -0.10045E-02
  0.51013E-08  0.11903E-02  0.21948E-02  0.26523E-02  0.25909E-02  0.23407E-02
  0.21891E-02  0.22310E-02  0.24851E-02  0.29601E-02  0.36228E-02  0.44350E-02
  0.53283E-02  0.60946E-02  0.65284E-02  0.66478E-02  0.65284E-02  0.60946E-02
  0.53283E-02  0.44350E-02  0.36228E-02  0.29602E-02  0.24851E-02  0.22311E-02
  0.21891E-02  0.23407E-02  0.25909E-02  0.26523E-02  0.21948E-02  0.11903E-02
 -0.20984E-09 -0.10045E-02 -0.18268E-02 -0.25866E-02 -0.18392E-02 -0.20009E-02
 -0.20769E-02 -0.16976E-02 -0.92412E-03  0.55245E-08  0.10045E-02  0.21630E-02
  0.33948E-02  0.42830E-02  0.43483E-02  0.35872E-02  0.25982E-02  0.20918E-02
  0.23704E-02  0.32770E-02  0.45039E-02  0.58440E-02  0.71537E-02  0.82260E-02
  0.88768E-02  0.90824E-02  0.88768E-02  0.82260E-02  0.71537E-02  0.58440E-02
  0.45039E-02  0.32770E-02  0.23704E-02  0.20918E-02  0.25982E-02  0.35872E-02
  0.43483E-02  0.42830E-02  0.33948E-02  0.21630E-02  0.10045E-02 -0.34211E-09
 -0.92413E-03 -0.16976E-02 -0.15788E-02 -0.12888E-02 -0.10578E-02 -0.69063E-03
  0.50136E-08  0.92414E-03  0.18268E-02  0.28187E-02  0.43034E-02  0.59685E-02
  0.65174E-02  0.51468E-02  0.28291E-02  0.13899E-02  0.16563E-02  0.31150E-02
  0.49640E-02  0.67584E-02  0.82337E-02  0.91837E-02  0.96155E-02  0.97214E-02
  0.96155E-02  0.91837E-02  0.82337E-02  0.67584E-02  0.49640E-02  0.31150E-02
  0.16563E-02  0.13899E-02  0.28291E-02  0.51468E-02  0.65174E-02  0.59685E-02
  0.43033E-02  0.28187E-02  0.18268E-02  0.92413E-03 -0.25302E-09 -0.69064E-03
 -0.14010E-02 -0.88208E-03 -0.41399E-03  0.35677E-08  0.69064E-03  0.16976E-02
  0.25866E-02  0.34597E-02  0.50903E-02  0.71079E-02  0.73650E-02  0.45949E-02
  0.67177E-03 -0.13164E-02 -0.42333E-03  0.20306E-02  0.46687E-02  0.69157E-02
  0.84133E-02  0.89754E-02  0.89290E-02  0.88300E-02  0.89290E-02  0.89754E-02
  0.84133E-02  0.69157E-02  0.46687E-02  0.20306E-02 -0.42332E-03 -0.13164E-02
  0.67177E-03  0.45949E-02  0.73650E-02  0.71079E-02  0.50903E-02  0.34597E-02
  0.25866E-02  0.16976E-02  0.69064E-03  0.25576E-09 -0.22355E-08  0.34225E-03
  0.58250E-03  0.60510E-03  0.71032E-03  0.10558E-02  0.12654E-02  0.10085E-02
 -0.29586E-03 -0.43410E-02 -0.12035E-01 -0.20151E-01 -0.22826E-01 -0.17883E-01
 -0.92294E-02 -0.18037E-02  0.30963E-02  0.63508E-02  0.81502E-02  0.84406E-02
  0.80092E-02  0.77639E-02  0.80092E-02  0.84406E-02  0.81502E-02  0.63508E-02
  0.30963E-02 -0.18037E-02 -0.92294E-02 -0.17883E-01 -0.22826E-01 -0.20151E-01
 -0.12035E-01 -0.43410E-02 -0.29586E-03  0.10085E-02  0.12654E-02  0.10558E-02
  0.71032E-03  0.60510E-03 -0.34225E-03 -0.96243E-09  0.20452E-03  0.23954E-03
  0.57656E-03  0.13198E-02  0.19242E-02  0.23212E-02  0.25797E-02  0.97950E-03
 -0.47186E-02 -0.12795E-01 -0.17427E-01 -0.14989E-01 -0.79886E-02 -0.11319E-02
  0.36841E-02  0.68291E-02  0.83960E-02  0.83918E-02  0.76810E-02  0.73124E-02
  0.76810E-02  0.83918E-02  0.83960E-02  0.68291E-02  0.36841E-02 -0.11319E-02
 -0.79886E-02 -0.14989E-01 -0.17427E-01 -0.12795E-01 -0.47186E-02  0.97950E-03
  0.25797E-02  0.23212E-02  0.19242E-02  0.13198E-02  0.57657E-03  0.23954E-03
 -0.58250E-03 -0.20452E-03 -0.36900E-10  0.72089E-04  0.52086E-03  0.13895E-02
  0.21445E-02  0.30294E-02  0.47354E-02  0.59029E-02  0.35269E-02 -0.24960E-02
 -0.77091E-02 -0.79882E-02 -0.40038E-02  0.84541E-03  0.46143E-02  0.71313E-02
  0.83011E-02  0.81273E-02  0.73649E-02  0.69801E-02  0.73649E-02  0.81273E-02
  0.83011E-02  0.71313E-02  0.46143E-02  0.84541E-03 -0.40038E-02 -0.79882E-02
 -0.77091E-02 -0.24960E-02  0.35269E-02  0.59029E-02  0.47354E-02  0.30294E-02
  0.21445E-02  0.13895E-02  0.52086E-03  0.72090E-04 -0.60510E-03 -0.23954E-03
 -0.72089E-04 -0.29909E-09  0.37759E-03  0.11342E-02  0.19567E-02  0.31138E-02
  0.52580E-02  0.74698E-02  0.72149E-02  0.36728E-02 -0.43408E-03 -0.18418E-02
 -0.23246E-03  0.25051E-02  0.49685E-02  0.68017E-02  0.77950E-02  0.78589E-02
  0.74374E-02  0.71980E-02  0.74374E-02  0.78589E-02  0.77950E-02  0.68017E-02
  0.49685E-02  0.25051E-02 -0.23247E-03 -0.18418E-02 -0.43408E-03  0.36728E-02
  0.72149E-02  0.74698E-02  0.52580E-02  0.31138E-02  0.19567E-02  0.11342E-02
  0.37759E-03  0.11089E-08 -0.71032E-03 -0.57656E-03 -0.52086E-03 -0.37759E-03
 -0.64182E-09  0.69359E-03  0.16413E-02  0.28821E-02  0.45306E-02  0.60153E-02
  0.60667E-02  0.42931E-02  0.20885E-02  0.11700E-02  0.18413E-02  0.32920E-02
  0.48567E-02  0.62963E-02  0.73854E-02  0.79158E-02  0.79911E-02  0.79542E-02
  0.79911E-02  0.79158E-02  0.73854E-02  0.62963E-02  0.48567E-02  0.32920E-02
  0.18413E-02  0.11700E-02  0.20885E-02  0.42931E-02  0.60667E-02  0.60153E-02
  0.45306E-02  0.28821E-02  0.16413E-02  0.69359E-03  0.96274E-09 -0.37759E-03
 -0.10558E-02 -0.13198E-02 -0.13895E-02 -0.11342E-02 -0.69359E-03 -0.63619E-09
  0.10406E-02  0.22184E-02  0.32002E-02  0.37159E-02  0.35727E-02  0.28991E-02
  0.22500E-02  0.21362E-02  0.26178E-02  0.34905E-02  0.45967E-02  0.58218E-02
  0.69611E-02  0.77572E-02  0.81202E-02  0.82008E-02  0.81201E-02  0.77572E-02
  0.69611E-02  0.58218E-02  0.45967E-02  0.34905E-02  0.26178E-02  0.21362E-02
  0.22500E-02  0.28991E-02  0.35727E-02  0.37159E-02  0.32002E-02  0.22184E-02
  0.10406E-02  0.80032E-09 -0.69359E-03 -0.11342E-02 -0.12654E-02 -0.19242E-02
 -0.21445E-02 -0.19567E-02 -0.16413E-02 -0.10406E-02 -0.42744E-09  0.10744E-02
  0.17175E-02  0.19661E-02  0.20701E-02  0.21230E-02  0.21499E-02  0.22426E-02
  0.25383E-02  0.31413E-02  0.40356E-02  0.50955E-02  0.61472E-02  0.69763E-02
  0.74336E-02  0.75618E-02  0.74336E-02  0.69763E-02  0.61472E-02  0.50955E-02
  0.40356E-02  0.31413E-02  0.25383E-02  0.22426E-02  0.21499E-02  0.21230E-02
  0.20701E-02  0.19661E-02  0.17175E-02  0.10744E-02  0.71614E-09 -0.10406E-02
 -0.16413E-02 -0.19567E-02 -0.10085E-02 -0.23212E-02 -0.30294E-02 -0.31138E-02
 -0.28821E-02 -0.22184E-02 -0.10744E-02 -0.26786E-09  0.59033E-03  0.97422E-03
  0.14370E-02  0.17703E-02  0.17606E-02  0.16100E-02  0.17058E-02  0.22432E-02
  0.31283E-02  0.41739E-02  0.52685E-02  0.62797E-02  0.69885E-02  0.72375E-02
  0.69885E-02  0.62797E-02  0.52685E-02  0.41739E-02  0.31283E-02  0.22432E-02
  0.17058E-02  0.16100E-02  0.17606E-02  0.17703E-02  0.14370E-02  0.97422E-03
  0.59033E-03  0.57938E-09 -0.10744E-02 -0.22184E-02 -0.28821E-02 -0.31138E-02
  0.29586E-03 -0.25797E-02 -0.47354E-02 -0.52580E-02 -0.45306E-02 -0.32002E-02
 -0.17175E-02 -0.59033E-03 -0.19582E-09  0.43433E-03  0.90217E-03  0.10777E-02
  0.82004E-03  0.51645E-03  0.62097E-03  0.12571E-02  0.22614E-02  0.34675E-02
  0.48826E-02  0.64615E-02  0.78067E-02  0.83449E-02  0.78067E-02  0.64615E-02
  0.48826E-02  0.34675E-02  0.22614E-02  0.12571E-02  0.62097E-03  0.51645E-03
  0.82004E-03  0.10777E-02  0.90217E-03  0.43433E-03  0.51593E-09 -0.59033E-03
 -0.17175E-02 -0.32002E-02 -0.45306E-02 -0.52580E-02  0.43410E-02 -0.97950E-03
 -0.59029E-02 -0.74698E-02 -0.60153E-02 -0.37159E-02 -0.19661E-02 -0.97422E-03
 -0.43433E-03 -0.16724E-09  0.31351E-03  0.26463E-03 -0.49385E-04 -0.21953E-03
  0.21770E-04  0.69773E-03  0.17208E-02  0.30703E-02  0.49381E-02  0.73775E-02
  0.96950E-02  0.10675E-01  0.96950E-02  0.73775E-02  0.49381E-02  0.30703E-02
  0.17208E-02  0.69773E-03  0.21770E-04 -0.21953E-03 -0.49385E-04  0.26463E-03
  0.31352E-03  0.51139E-09 -0.43433E-03 -0.97421E-03 -0.19661E-02 -0.37159E-02
 -0.60153E-02 -0.74698E-02  0.12035E-01  0.47186E-02 -0.35269E-02 -0.72149E-02
 -0.60667E-02 -0.35727E-02 -0.20701E-02 -0.14370E-02 -0.90217E-03 -0.31351E-03
 -0.13821E-09 -0.83570E-04 -0.24552E-03 -0.20335E-03  0.43766E-04  0.51354E-03
  0.13291E-02  0.26802E-02  0.49600E-02  0.83079E-02  0.11676E-01  0.13135E-01
  0.11676E-01  0.83079E-02  0.49600E-02  0.26802E-02  0.13291E-02  0.51354E-03
  0.43766E-04 -0.20335E-03 -0.24552E-03 -0.83569E-04  0.46006E-09 -0.31351E-03
 -0.90217E-03 -0.14370E-02 -0.20701E-02 -0.35727E-02 -0.60667E-02 -0.72149E-02
  0.20151E-01  0.12795E-01  0.24960E-02 -0.36728E-02 -0.42931E-02 -0.28991E-02
 -0.21230E-02 -0.17703E-02 -0.10777E-02 -0.26463E-03  0.83570E-04  0.25395E-10
 -0.42112E-04  0.68945E-04  0.13761E-03  0.27388E-03  0.82609E-03  0.21263E-02
  0.46578E-02  0.85707E-02  0.12576E-01  0.14321E-01  0.12576E-01  0.85707E-02
  0.46578E-02  0.21263E-02  0.82609E-03  0.27388E-03  0.13761E-03  0.68945E-04
 -0.42112E-04  0.25349E-09  0.83570E-04 -0.26463E-03 -0.10777E-02 -0.17703E-02
 -0.21230E-02 -0.28991E-02 -0.42931E-02 -0.36728E-02  0.22826E-01  0.17427E-01
  0.77091E-02  0.43408E-03 -0.20885E-02 -0.22500E-02 -0.21499E-02 -0.17606E-02
 -0.82004E-03  0.49385E-04  0.24552E-03  0.42113E-04  0.15108E-09  0.71529E-04
 -0.32789E-04 -0.86981E-04  0.37810E-03  0.16629E-02  0.41257E-02  0.78278E-02
  0.11551E-01  0.13159E-01  0.11551E-01  0.78278E-02  0.41257E-02  0.16629E-02
  0.37810E-03 -0.86982E-04 -0.32789E-04  0.71528E-04  0.44937E-11  0.42113E-04
  0.24552E-03  0.49385E-04 -0.82004E-03 -0.17606E-02 -0.21499E-02 -0.22500E-02
 -0.20885E-02  0.43408E-03  0.17883E-01  0.14989E-01  0.79882E-02  0.18418E-02
 -0.11700E-02 -0.21362E-02 -0.22426E-02 -0.16100E-02 -0.51645E-03  0.21953E-03
  0.20335E-03 -0.68945E-04 -0.71528E-04  0.11993E-09 -0.14931E-03 -0.19814E-03
  0.31868E-03  0.15310E-02  0.35216E-02  0.62119E-02  0.87583E-02  0.98268E-02
  0.87583E-02  0.62119E-02  0.35216E-02  0.15310E-02  0.31868E-03 -0.19814E-03
 -0.14931E-03 -0.74306E-10 -0.71528E-04 -0.68945E-04  0.20335E-03  0.21953E-03
 -0.51645E-03 -0.16100E-02 -0.22426E-02 -0.21362E-02 -0.11700E-02  0.18418E-02
  0.92294E-02  0.79886E-02  0.40038E-02  0.23247E-03 -0.18413E-02 -0.26178E-02
 -0.25383E-02 -0.17058E-02 -0.62097E-03 -0.21770E-04 -0.43765E-04 -0.13761E-03
  0.32789E-04  0.14931E-03  0.73998E-10 -0.18078E-04  0.47512E-03  0.14265E-02
  0.26875E-02  0.40776E-02  0.51922E-02  0.56150E-02  0.51922E-02  0.40776E-02
  0.26875E-02  0.14265E-02  0.47512E-03 -0.18078E-04 -0.10324E-09  0.14931E-03
  0.32789E-04 -0.13761E-03 -0.43766E-04 -0.21770E-04 -0.62097E-03 -0.17058E-02
 -0.25383E-02 -0.26178E-02 -0.18413E-02  0.23246E-03  0.18037E-02  0.11319E-02
 -0.84541E-03 -0.25051E-02 -0.32920E-02 -0.34905E-02 -0.31413E-02 -0.22432E-02
 -0.12571E-02 -0.69773E-03 -0.51354E-03 -0.27388E-03  0.86982E-04  0.19814E-03