       #
       # Generated by the Wannier90 code http://www.wannier.org
       # On 22Sep2015 at 20:55:29 
       #
CRYSTAL
PRIMVEC
   3.8425000   0.0000000   0.0000000
   0.0000000   3.8425000   0.0000000
   0.0000000   0.0000000   3.8425000
CONVVEC
   3.8425000   0.0000000   0.0000000
   0.0000000   3.8425000   0.0000000
   0.0000000   0.0000000   3.8425000
PRIMCOORD
     5  1
V       0.0000000   0.0000000   0.0000000
Sr      1.9212500   1.9212500   1.9212500
O       1.9212500   0.0000000   0.0000000
O       0.0000000   1.9212500   0.0000000
O       0.0000000   0.0000000   1.9212500


BEGIN_BLOCK_DATAGRID_3D
3D_field
BEGIN_DATAGRID_3D_UNKNOWN
    40    40    40
   -4.034625   -4.034625   -4.034625
   7.4928749   0.0000000   0.0000000
   0.0000000   7.4928749   0.0000000
   0.0000000   0.0000000   7.4928749
 -0.28163E-03  0.98149E-03  0.12048E-02  0.71599E-03  0.32523E-03  0.43891E-03
  0.47410E-03 -0.63828E-03 -0.40462E-02 -0.10977E-01 -0.20832E-01 -0.28817E-01
 -0.28903E-01 -0.20564E-01 -0.96136E-02 -0.14814E-02  0.31883E-02  0.59003E-02
  0.71083E-02  0.68689E-02  0.60441E-02  0.56452E-02  0.60441E-02  0.68690E-02
  0.71084E-02  0.59003E-02  0.31883E-02 -0.14814E-02 -0.96136E-02 -0.20564E-01
 -0.28903E-01 -0.28817E-01 -0.20832E-01 -0.10977E-01 -0.40462E-02 -0.63825E-03
  0.47412E-03  0.43893E-03  0.32522E-03  0.71597E-03  0.20456E-03  0.64314E-03
  0.43754E-03  0.23997E-03  0.58608E-03  0.13700E-02  0.20097E-02  0.23111E-02
  0.21180E-02 -0.11527E-03 -0.58902E-02 -0.12809E-01 -0.15364E-01 -0.11278E-01
 -0.40850E-02  0.18759E-02  0.58230E-02  0.87733E-02  0.10751E-01  0.11389E-01
  0.11192E-01  0.11011E-01  0.11192E-01  0.11389E-01  0.10751E-01  0.87734E-02
  0.58230E-02  0.18759E-02 -0.40849E-02 -0.11278E-01 -0.15364E-01 -0.12809E-01
 -0.58903E-02 -0.11526E-03  0.21180E-02  0.23112E-02  0.20097E-02  0.13700E-02
  0.58607E-03  0.23994E-03  0.64100E-03  0.57282E-03  0.36756E-03  0.41835E-03
  0.92330E-03  0.18256E-02  0.30067E-02  0.48605E-02  0.77592E-02  0.10264E-01
  0.96464E-02  0.56146E-02  0.16398E-02  0.98589E-03  0.33516E-02  0.67280E-02
  0.10286E-01  0.13942E-01  0.17017E-01  0.18830E-01  0.19541E-01  0.19698E-01
  0.19541E-01  0.18830E-01  0.17017E-01  0.13942E-01  0.10286E-01  0.67280E-02
  0.33516E-02  0.98592E-03  0.16398E-02  0.56145E-02  0.96463E-02  0.10264E-01
  0.77592E-02  0.48605E-02  0.30068E-02  0.18257E-02  0.92330E-03  0.41832E-03
  0.11415E-02  0.94170E-03  0.73824E-03  0.64798E-03  0.86385E-03  0.17062E-02
  0.33341E-02  0.58603E-02  0.94923E-02  0.13578E-01  0.15980E-01  0.14999E-01
  0.11762E-01  0.92795E-02  0.94051E-02  0.11877E-01  0.15689E-01  0.20024E-01
  0.24171E-01  0.27521E-01  0.29695E-01  0.30455E-01  0.29695E-01  0.27521E-01
  0.24171E-01  0.20024E-01  0.15689E-01  0.11878E-01  0.94052E-02  0.92796E-02
  0.11762E-01  0.14999E-01  0.15980E-01  0.13578E-01  0.94923E-02  0.58604E-02
  0.33341E-02  0.17062E-02  0.86385E-03  0.64797E-03  0.15865E-02  0.11958E-02
  0.73859E-03  0.44619E-03  0.54583E-03  0.13802E-02  0.30400E-02  0.51815E-02
  0.77104E-02  0.10775E-01  0.13498E-01  0.14190E-01  0.12741E-01  0.11375E-01
  0.12201E-01  0.15345E-01  0.19964E-01  0.25682E-01  0.32302E-01  0.38927E-01
  0.43957E-01  0.45847E-01  0.43957E-01  0.38927E-01  0.32302E-01  0.25682E-01
  0.19964E-01  0.15345E-01  0.12201E-01  0.11375E-01  0.12741E-01  0.14190E-01
  0.13498E-01  0.10775E-01  0.77104E-02  0.51815E-02  0.30400E-02  0.13802E-02
  0.54583E-03  0.44619E-03  0.16032E-02  0.83108E-03  0.11797E-03 -0.73027E-04
  0.19358E-03  0.86286E-03  0.20145E-02  0.34121E-02  0.48825E-02  0.66471E-02
  0.83946E-02  0.91826E-02  0.91456E-02  0.98782E-02  0.12547E-01  0.17150E-01
  0.23792E-01  0.32977E-01  0.44318E-01  0.55857E-01  0.64655E-01  0.67972E-01
  0.64655E-01  0.55857E-01  0.44318E-01  0.32977E-01  0.23792E-01  0.17150E-01
  0.12547E-01  0.98782E-02  0.91456E-02  0.91826E-02  0.83946E-02  0.66471E-02
  0.48825E-02  0.34121E-02  0.20146E-02  0.86287E-03  0.19359E-03 -0.73021E-04
  0.11286E-02 -0.31964E-04 -0.82345E-03 -0.81574E-03 -0.49093E-03 -0.19152E-03
  0.34556E-03  0.12327E-02  0.22614E-02  0.32496E-02  0.39248E-02  0.42843E-02
  0.52414E-02  0.78106E-02  0.12168E-01  0.18667E-01  0.28509E-01  0.42229E-01
  0.58748E-01  0.75844E-01  0.89682E-01  0.95163E-01  0.89682E-01  0.75844E-01
  0.58748E-01  0.42229E-01  0.28509E-01  0.18667E-01  0.12168E-01  0.78105E-02
  0.52414E-02  0.42843E-02  0.39248E-02  0.32495E-02  0.22614E-02  0.12327E-02
  0.34557E-03 -0.19151E-03 -0.49091E-03 -0.81573E-03  0.83555E-03 -0.72728E-03
 -0.17296E-02 -0.18828E-02 -0.17724E-02 -0.16857E-02 -0.13351E-02 -0.68597E-03
 -0.94213E-04  0.14334E-03  0.66351E-04  0.43139E-03  0.23649E-02  0.61198E-02
  0.11523E-01  0.19712E-01  0.32262E-01  0.49490E-01  0.71930E-01  0.99706E-01
  0.12612E+00  0.13747E+00  0.12612E+00  0.99706E-01  0.71930E-01  0.49490E-01
  0.32262E-01  0.19712E-01  0.11523E-01  0.61197E-02  0.23648E-02  0.43136E-03
  0.66332E-04  0.14333E-03 -0.94219E-04 -0.68597E-03 -0.13350E-02 -0.16856E-02
 -0.17723E-02 -0.18828E-02  0.22528E-02  0.26100E-04 -0.19694E-02 -0.30630E-02
 -0.33975E-02 -0.31965E-02 -0.26249E-02 -0.21378E-02 -0.21654E-02 -0.26664E-02
 -0.30686E-02 -0.23487E-02  0.16978E-03  0.41595E-02  0.97640E-02  0.18655E-01
  0.32184E-01  0.52188E-01  0.84949E-01  0.13460E+00  0.18652E+00  0.20951E+00
  0.18652E+00  0.13460E+00  0.84949E-01  0.52188E-01  0.32184E-01  0.18655E-01
  0.97639E-02  0.41594E-02  0.16976E-03 -0.23487E-02 -0.30686E-02 -0.26664E-02
 -0.21654E-02 -0.21378E-02 -0.26249E-02 -0.31965E-02 -0.33974E-02 -0.30629E-02
  0.71181E-02  0.39005E-02 -0.37276E-03 -0.35879E-02 -0.48062E-02 -0.44929E-02
 -0.37366E-02 -0.34668E-02 -0.39377E-02 -0.47497E-02 -0.51479E-02 -0.43163E-02
 -0.20311E-02  0.13790E-02  0.65310E-02  0.14918E-01  0.27601E-01  0.49427E-01
  0.93412E-01  0.16645E+00  0.24444E+00  0.27904E+00  0.24444E+00  0.16645E+00
  0.93412E-01  0.49427E-01  0.27601E-01  0.14918E-01  0.65310E-02  0.13790E-02
 -0.20311E-02 -0.43163E-02 -0.51479E-02 -0.47496E-02 -0.39377E-02 -0.34668E-02
 -0.37366E-02 -0.44929E-02 -0.48062E-02 -0.35879E-02  0.15109E-01  0.10982E-01
  0.36161E-02 -0.26362E-02 -0.52863E-02 -0.52430E-02 -0.46791E-02 -0.47733E-02
 -0.54628E-02 -0.62590E-02 -0.66334E-02 -0.60621E-02 -0.43870E-02 -0.16457E-02
  0.27629E-02  0.94438E-02  0.18921E-01  0.37292E-01  0.79310E-01  0.15187E+00
  0.22972E+00  0.26422E+00  0.22972E+00  0.15187E+00  0.79310E-01  0.37292E-01
  0.18921E-01  0.94437E-02  0.27629E-02 -0.16457E-02 -0.43870E-02 -0.60621E-02
 -0.66333E-02 -0.62590E-02 -0.54628E-02 -0.47733E-02 -0.46791E-02 -0.52430E-02
 -0.52863E-02 -0.26362E-02  0.22119E-01  0.17776E-01  0.82296E-02 -0.42350E-03
 -0.44892E-02 -0.51928E-02 -0.53042E-02 -0.59278E-02 -0.68031E-02 -0.76274E-02
 -0.81372E-02 -0.78596E-02 -0.64946E-02 -0.40551E-02 -0.61063E-03  0.32599E-02
  0.70244E-02  0.14290E-01  0.34434E-01  0.72297E-01  0.11413E+00  0.13284E+00
  0.11413E+00  0.72297E-01  0.34434E-01  0.14290E-01  0.70244E-02  0.32599E-02
 -0.61067E-03 -0.40551E-02 -0.64947E-02 -0.78596E-02 -0.81372E-02 -0.76274E-02
 -0.68031E-02 -0.59278E-02 -0.53042E-02 -0.51928E-02 -0.44892E-02 -0.42352E-03
  0.23179E-01  0.19485E-01  0.10257E-01  0.14941E-02 -0.31927E-02 -0.49447E-02
 -0.60338E-02 -0.71013E-02 -0.80290E-02 -0.89386E-02 -0.96416E-02 -0.94642E-02
 -0.80446E-02 -0.57368E-02 -0.34776E-02 -0.27524E-02 -0.50702E-02 -0.10724E-01
 -0.18341E-01 -0.25820E-01 -0.31266E-01 -0.33271E-01 -0.31267E-01 -0.25820E-01
 -0.18341E-01 -0.10724E-01 -0.50702E-02 -0.27524E-02 -0.34776E-02 -0.57369E-02
 -0.80447E-02 -0.94643E-02 -0.96416E-02 -0.89387E-02 -0.80290E-02 -0.71013E-02
 -0.60338E-02 -0.49447E-02 -0.31927E-02  0.14941E-02  0.17949E-01  0.15274E-01
  0.85160E-02  0.17638E-02 -0.26423E-02 -0.52950E-02 -0.71303E-02 -0.82907E-02
 -0.91476E-02 -0.10226E-01 -0.11119E-01 -0.10872E-01 -0.92656E-02 -0.70828E-02
 -0.57704E-02 -0.71933E-02 -0.13150E-01 -0.25768E-01 -0.48120E-01 -0.80164E-01
 -0.11171E+00 -0.12526E+00 -0.11171E+00 -0.80164E-01 -0.48120E-01 -0.25768E-01
 -0.13150E-01 -0.71934E-02 -0.57705E-02 -0.70828E-02 -0.92657E-02 -0.10872E-01
 -0.11119E-01 -0.10226E-01 -0.91477E-02 -0.82907E-02 -0.71303E-02 -0.52950E-02
 -0.26423E-02  0.17638E-02  0.11083E-01  0.91723E-02  0.50944E-02  0.65632E-03
 -0.31112E-02 -0.60672E-02 -0.80878E-02 -0.93230E-02 -0.10579E-01 -0.12247E-01
 -0.13407E-01 -0.12968E-01 -0.11062E-01 -0.87326E-02 -0.73708E-02 -0.88454E-02
 -0.15014E-01 -0.27627E-01 -0.49213E-01 -0.79897E-01 -0.11028E+00 -0.12341E+00
 -0.11028E+00 -0.79897E-01 -0.49213E-01 -0.27627E-01 -0.15014E-01 -0.88454E-02
 -0.73708E-02 -0.87327E-02 -0.11062E-01 -0.12968E-01 -0.13407E-01 -0.12247E-01
 -0.10579E-01 -0.93230E-02 -0.80878E-02 -0.60672E-02 -0.31112E-02  0.65631E-03
  0.67198E-02  0.51031E-02  0.24642E-02 -0.72092E-03 -0.39798E-02 -0.67525E-02
 -0.88359E-02 -0.10758E-01 -0.13180E-01 -0.15798E-01 -0.17262E-01 -0.16590E-01
 -0.14218E-01 -0.11223E-01 -0.86171E-02 -0.80435E-02 -0.11684E-01 -0.20929E-01
 -0.36161E-01 -0.56118E-01 -0.74921E-01 -0.82891E-01 -0.74921E-01 -0.56118E-01
 -0.36161E-01 -0.20929E-01 -0.11685E-01 -0.80435E-02 -0.86171E-02 -0.11223E-01
 -0.14218E-01 -0.16590E-01 -0.17262E-01 -0.15798E-01 -0.13180E-01 -0.10758E-01
 -0.88359E-02 -0.67525E-02 -0.39798E-02 -0.72094E-03  0.50745E-02  0.34052E-02
  0.10583E-02 -0.17830E-02 -0.47494E-02 -0.74219E-02 -0.10024E-01 -0.13164E-01
 -0.16937E-01 -0.20585E-01 -0.22719E-01 -0.22157E-01 -0.19015E-01 -0.14509E-01
 -0.98601E-02 -0.64616E-02 -0.63986E-02 -0.11231E-01 -0.20588E-01 -0.32226E-01
 -0.42322E-01 -0.46405E-01 -0.42322E-01 -0.32226E-01 -0.20588E-01 -0.11231E-01
 -0.63987E-02 -0.64616E-02 -0.98601E-02 -0.14509E-01 -0.19015E-01 -0.22157E-01
 -0.22719E-01 -0.20585E-01 -0.16937E-01 -0.13164E-01 -0.10024E-01 -0.74219E-02
 -0.47494E-02 -0.17830E-02  0.44745E-02  0.26205E-02  0.21532E-03 -0.24470E-02
 -0.52094E-02 -0.80885E-02 -0.11481E-01 -0.15750E-01 -0.20949E-01 -0.26702E-01
 -0.31295E-01 -0.31849E-01 -0.27131E-01 -0.19267E-01 -0.11467E-01 -0.55331E-02
 -0.23416E-02 -0.26738E-02 -0.63864E-02 -0.11819E-01 -0.16524E-01 -0.18376E-01
 -0.16524E-01 -0.11819E-01 -0.63864E-02 -0.26738E-02 -0.23416E-02 -0.55331E-02
 -0.11467E-01 -0.19267E-01 -0.27131E-01 -0.31849E-01 -0.31295E-01 -0.26701E-01
 -0.20949E-01 -0.15750E-01 -0.11481E-01 -0.80885E-02 -0.52094E-02 -0.24470E-02
  0.39014E-02  0.19890E-02 -0.32394E-03 -0.26525E-02 -0.51537E-02 -0.81490E-02
 -0.11933E-01 -0.16995E-01 -0.24371E-01 -0.34393E-01 -0.43868E-01 -0.46621E-01
 -0.39495E-01 -0.26333E-01 -0.13861E-01 -0.53779E-02 -0.26060E-03  0.27016E-02
  0.39721E-02  0.40564E-02  0.37332E-02  0.35684E-02  0.37331E-02  0.40564E-02
  0.39721E-02  0.27015E-02 -0.26061E-03 -0.53779E-02 -0.13861E-01 -0.26333E-01
 -0.39495E-01 -0.46621E-01 -0.43868E-01 -0.34393E-01 -0.24371E-01 -0.16995E-01
 -0.11933E-01 -0.81490E-02 -0.51537E-02 -0.26525E-02  0.30226E-02  0.14099E-02
 -0.49884E-03 -0.23240E-02 -0.43418E-02 -0.68966E-02 -0.10243E-01 -0.15406E-01
 -0.24501E-01 -0.38086E-01 -0.51389E-01 -0.55901E-01 -0.47401E-01 -0.30833E-01
 -0.15140E-01 -0.49641E-02  0.83049E-03  0.48768E-02  0.83766E-02  0.11366E-01
  0.13496E-01  0.14290E-01  0.13496E-01  0.11365E-01  0.83765E-02  0.48767E-02
  0.83047E-03 -0.49642E-02 -0.15140E-01 -0.30833E-01 -0.47401E-01 -0.55901E-01
 -0.51389E-01 -0.38086E-01 -0.24501E-01 -0.15407E-01 -0.10243E-01 -0.68966E-02
 -0.43418E-02 -0.23240E-02  0.16858E-02  0.76566E-03 -0.34679E-03 -0.14001E-02
 -0.25655E-02 -0.40384E-02 -0.60368E-02 -0.95667E-02 -0.16447E-01 -0.26988E-01
 -0.37307E-01 -0.40946E-01 -0.34815E-01 -0.22556E-01 -0.10794E-01 -0.31639E-02
  0.10160E-02  0.38271E-02  0.64078E-02  0.88369E-02  0.10686E-01  0.11394E-01
  0.10686E-01  0.88368E-02  0.64078E-02  0.38271E-02  0.10159E-02 -0.31639E-02
 -0.10794E-01 -0.22556E-01 -0.34815E-01 -0.40946E-01 -0.37307E-01 -0.26988E-01
 -0.16447E-01 -0.95667E-02 -0.60368E-02 -0.40385E-02 -0.25656E-02 -0.14002E-02
 -0.10715E-07  0.41395E-08  0.18100E-07  0.24138E-07  0.21517E-07  0.14539E-07
  0.79776E-08  0.37651E-08 -0.21863E-08 -0.16709E-07 -0.37444E-07 -0.49757E-07
 -0.41928E-07 -0.18991E-07  0.29032E-08  0.13165E-07  0.15591E-07  0.21020E-07
  0.32175E-07  0.38824E-07  0.29999E-07  0.81221E-08 -0.12238E-07 -0.18966E-07
 -0.13638E-07 -0.73054E-08 -0.63382E-08 -0.53416E-08  0.45362E-08  0.22196E-07
  0.35437E-07  0.35210E-07  0.26208E-07  0.17749E-07  0.10794E-07  0.31419E-08
 -0.10042E-08  0.18565E-08  0.66848E-08  0.84790E-08 -0.16859E-02 -0.76565E-03
  0.34683E-03  0.14002E-02  0.25656E-02  0.40385E-02  0.60368E-02  0.95667E-02
  0.16447E-01  0.26988E-01  0.37307E-01  0.40946E-01  0.34815E-01  0.22556E-01
  0.10794E-01  0.31639E-02 -0.10159E-02 -0.38271E-02 -0.64078E-02 -0.88368E-02
 -0.10686E-01 -0.11394E-01 -0.10686E-01 -0.88368E-02 -0.64078E-02 -0.38271E-02
 -0.10159E-02  0.31639E-02  0.10794E-01  0.22556E-01  0.34815E-01  0.40946E-01
  0.37307E-01  0.26988E-01  0.16447E-01  0.95667E-02  0.60368E-02  0.40385E-02
  0.25656E-02  0.14002E-02 -0.30226E-02 -0.14099E-02  0.49887E-03  0.23240E-02
  0.43418E-02  0.68966E-02  0.10243E-01  0.15407E-01  0.24501E-01  0.38086E-01
  0.51389E-01  0.55901E-01  0.47401E-01  0.30833E-01  0.15140E-01  0.49642E-02
 -0.83046E-03 -0.48767E-02 -0.83765E-02 -0.11365E-01 -0.13496E-01 -0.14290E-01
 -0.13496E-01 -0.11366E-01 -0.83765E-02 -0.48767E-02 -0.83048E-03  0.49642E-02
  0.15140E-01  0.30833E-01  0.47401E-01  0.55901E-01  0.51389E-01  0.38087E-01
  0.24501E-01  0.15407E-01  0.10243E-01  0.68966E-02  0.43418E-02  0.23240E-02
 -0.39014E-02 -0.19890E-02  0.32395E-03  0.26525E-02  0.51537E-02  0.81490E-02
  0.11933E-01  0.16995E-01  0.24371E-01  0.34393E-01  0.43868E-01  0.46621E-01
  0.39495E-01  0.26333E-01  0.13861E-01  0.53779E-02  0.26063E-03 -0.27015E-02
 -0.39721E-02 -0.40564E-02 -0.37331E-02 -0.35684E-02 -0.37331E-02 -0.40564E-02
 -0.39721E-02 -0.27015E-02  0.26062E-03  0.53779E-02  0.13861E-01  0.26333E-01
  0.39495E-01  0.46621E-01  0.43868E-01  0.34393E-01  0.24371E-01  0.16995E-01
  0.11933E-01  0.81490E-02  0.51537E-02  0.26525E-02 -0.44746E-02 -0.26205E-02
 -0.21531E-03  0.24470E-02  0.52094E-02  0.80885E-02  0.11481E-01  0.15750E-01
  0.20949E-01  0.26702E-01  0.31295E-01  0.31849E-01  0.27131E-01  0.19267E-01
  0.11467E-01  0.55331E-02  0.23416E-02  0.26738E-02  0.63864E-02  0.11819E-01
  0.16524E-01  0.18376E-01  0.16524E-01  0.11819E-01  0.63864E-02  0.26738E-02
  0.23416E-02  0.55331E-02  0.11467E-01  0.19267E-01  0.27131E-01  0.31849E-01
  0.31295E-01  0.26701E-01  0.20949E-01  0.15750E-01  0.11481E-01  0.80885E-02
  0.52094E-02  0.24470E-02 -0.50745E-02 -0.34052E-02 -0.10583E-02  0.17830E-02
  0.47494E-02  0.74219E-02  0.10024E-01  0.13164E-01  0.16937E-01  0.20585E-01
  0.22719E-01  0.22157E-01  0.19015E-01  0.14509E-01  0.98601E-02  0.64616E-02
  0.63986E-02  0.11231E-01  0.20588E-01  0.32226E-01  0.42322E-01  0.46405E-01
  0.42322E-01  0.32226E-01  0.20588E-01  0.11231E-01  0.63986E-02  0.64616E-02
  0.98601E-02  0.14509E-01  0.19015E-01  0.22157E-01  0.22719E-01  0.20585E-01
  0.16937E-01  0.13164E-01  0.10024E-01  0.74219E-02  0.47494E-02  0.17830E-02
 -0.67198E-02 -0.51031E-02 -0.24642E-02  0.72092E-03  0.39798E-02  0.67525E-02
  0.88359E-02  0.10758E-01  0.13180E-01  0.15798E-01  0.17262E-01  0.16590E-01
  0.14218E-01  0.11223E-01  0.86170E-02  0.80434E-02  0.11684E-01  0.20929E-01
  0.36161E-01  0.56118E-01  0.74921E-01  0.82891E-01  0.74921E-01  0.56118E-01
  0.36161E-01  0.20929E-01  0.11685E-01  0.80435E-02  0.86171E-02  0.11223E-01
  0.14218E-01  0.16590E-01  0.17262E-01  0.15798E-01  0.13180E-01  0.10758E-01
  0.88359E-02  0.67525E-02  0.39798E-02  0.72093E-03 -0.11083E-01 -0.91723E-02
 -0.50944E-02 -0.65632E-03  0.31112E-02  0.60672E-02  0.80878E-02  0.93230E-02
  0.10579E-01  0.12247E-01  0.13407E-01  0.12968E-01  0.11062E-01  0.87326E-02
  0.73708E-02  0.88453E-02  0.15014E-01  0.27627E-01  0.49213E-01  0.79897E-01
  0.11028E+00  0.12341E+00  0.11028E+00  0.79897E-01  0.49213E-01  0.27627E-01
  0.15014E-01  0.88454E-02  0.73708E-02  0.87326E-02  0.11062E-01  0.12968E-01
  0.13407E-01  0.12247E-01  0.10579E-01  0.93230E-02  0.80878E-02  0.60672E-02
  0.31112E-02 -0.65630E-03 -0.17949E-01 -0.15274E-01 -0.85160E-02 -0.17638E-02
  0.26422E-02  0.52950E-02  0.71303E-02  0.82907E-02  0.91476E-02  0.10226E-01
  0.11119E-01  0.10872E-01  0.92656E-02  0.70827E-02  0.57704E-02  0.71933E-02
  0.13150E-01  0.25768E-01  0.48120E-01  0.80164E-01  0.11171E+00  0.12526E+00
  0.11171E+00  0.80164E-01  0.48120E-01  0.25768E-01  0.13150E-01  0.71934E-02
  0.57705E-02  0.70828E-02  0.92657E-02  0.10872E-01  0.11120E-01  0.10226E-01
  0.91477E-02  0.82907E-02  0.71303E-02  0.52950E-02  0.26423E-02 -0.17638E-02
 -0.23179E-01 -0.19485E-01 -0.10257E-01 -0.14941E-02  0.31926E-02  0.49447E-02
  0.60338E-02  0.71013E-02  0.80290E-02  0.89386E-02  0.96416E-02  0.94642E-02
  0.80446E-02  0.57368E-02  0.34775E-02  0.27523E-02  0.50702E-02  0.10724E-01
  0.18341E-01  0.25820E-01  0.31267E-01  0.33271E-01  0.31266E-01  0.25820E-01
  0.18341E-01  0.10724E-01  0.50702E-02  0.27524E-02  0.34776E-02  0.57369E-02
  0.80447E-02  0.94643E-02  0.96416E-02  0.89387E-02  0.80290E-02  0.71013E-02
  0.60338E-02  0.49447E-02  0.31927E-02 -0.14941E-02 -0.22119E-01 -0.17776E-01
 -0.82297E-02  0.42348E-03  0.44892E-02  0.51928E-02  0.53042E-02  0.59278E-02
  0.68031E-02  0.76274E-02  0.81372E-02  0.78596E-02  0.64946E-02  0.40551E-02
  0.61062E-03 -0.32599E-02 -0.70244E-02 -0.14290E-01 -0.34434E-01 -0.72297E-01
 -0.11413E+00 -0.13284E+00 -0.11413E+00 -0.72297E-01 -0.34434E-01 -0.14290E-01
 -0.70244E-02 -0.32599E-02  0.61066E-03  0.40551E-02  0.64947E-02  0.78596E-02
  0.81372E-02  0.76274E-02  0.68031E-02  0.59278E-02  0.53042E-02  0.51928E-02
  0.44892E-02  0.42351E-03 -0.15109E-01 -0.10982E-01 -0.36162E-02  0.26362E-02
  0.52863E-02  0.52430E-02  0.46791E-02  0.47733E-02  0.54628E-02  0.62590E-02
  0.66334E-02  0.60621E-02  0.43870E-02  0.16457E-02 -0.27629E-02 -0.94438E-02
 -0.18921E-01 -0.37292E-01 -0.79310E-01 -0.15187E+00 -0.22972E+00 -0.26422E+00
 -0.22972E+00 -0.15187E+00 -0.79310E-01 -0.37292E-01 -0.18921E-01 -0.94437E-02
 -0.27629E-02  0.16457E-02  0.43870E-02  0.60621E-02  0.66334E-02  0.62590E-02
  0.54628E-02  0.47733E-02  0.46791E-02  0.52430E-02  0.52863E-02  0.26361E-02
 -0.71181E-02 -0.39005E-02  0.37275E-03  0.35879E-02  0.48062E-02  0.44929E-02
  0.37366E-02  0.34668E-02  0.39377E-02  0.47497E-02  0.51480E-02  0.43164E-02
  0.20311E-02 -0.13790E-02 -0.65310E-02 -0.14918E-01 -0.27601E-01 -0.49427E-01
 -0.93412E-01 -0.16645E+00 -0.24444E+00 -0.27904E+00 -0.24444E+00 -0.16645E+00
 -0.93412E-01 -0.49427E-01 -0.27601E-01 -0.14918E-01 -0.65310E-02 -0.13790E-02
  0.20311E-02  0.43164E-02  0.51479E-02  0.47497E-02  0.39377E-02  0.34668E-02
  0.37366E-02  0.44929E-02  0.48062E-02  0.35879E-02 -0.22527E-02 -0.26093E-04
  0.19694E-02  0.30630E-02  0.33975E-02  0.31965E-02  0.26249E-02  0.21378E-02
  0.21654E-02  0.26664E-02  0.30686E-02  0.23487E-02 -0.16976E-03 -0.41595E-02
 -0.97639E-02 -0.18655E-01 -0.32184E-01 -0.52188E-01 -0.84949E-01 -0.13460E+00
 -0.18652E+00 -0.20951E+00 -0.18652E+00 -0.13460E+00 -0.84949E-01 -0.52188E-01
 -0.32184E-01 -0.18655E-01 -0.97639E-02 -0.41594E-02 -0.16974E-03  0.23487E-02
  0.30686E-02  0.26664E-02  0.21654E-02  0.21378E-02  0.26249E-02  0.31965E-02
  0.33975E-02  0.30629E-02 -0.83554E-03  0.72729E-03  0.17296E-02  0.18828E-02
  0.17724E-02  0.16857E-02  0.13351E-02  0.68599E-03  0.94227E-04 -0.14332E-03
 -0.66337E-04 -0.43138E-03 -0.23648E-02 -0.61197E-02 -0.11523E-01 -0.19712E-01
 -0.32262E-01 -0.49490E-01 -0.71930E-01 -0.99706E-01 -0.12612E+00 -0.13747E+00
 -0.12612E+00 -0.99706E-01 -0.71930E-01 -0.49490E-01 -0.32262E-01 -0.19712E-01
 -0.11523E-01 -0.61197E-02 -0.23648E-02 -0.43134E-03 -0.66309E-04 -0.14331E-03
  0.94236E-04  0.68599E-03  0.13351E-02  0.16857E-02  0.17724E-02  0.18828E-02
 -0.11286E-02  0.31981E-04  0.82346E-03  0.81575E-03  0.49094E-03  0.19154E-03
 -0.34554E-03 -0.12327E-02 -0.22614E-02 -0.32495E-02 -0.39248E-02 -0.42843E-02
 -0.52414E-02 -0.78105E-02 -0.12168E-01 -0.18667E-01 -0.28509E-01 -0.42229E-01
 -0.58748E-01 -0.75844E-01 -0.89682E-01 -0.95163E-01 -0.89682E-01 -0.75844E-01
 -0.58748E-01 -0.42229E-01 -0.28509E-01 -0.18667E-01 -0.12168E-01 -0.78105E-02
 -0.52414E-02 -0.42843E-02 -0.39248E-02 -0.32495E-02 -0.22614E-02 -0.12327E-02
 -0.34554E-03  0.19153E-03  0.49093E-03  0.81574E-03 -0.16032E-02 -0.83105E-03
 -0.11795E-03  0.73047E-04 -0.19356E-03 -0.86284E-03 -0.20145E-02 -0.34121E-02
 -0.48825E-02 -0.66471E-02 -0.83946E-02 -0.91826E-02 -0.91456E-02 -0.98782E-02
 -0.12547E-01 -0.17150E-01 -0.23792E-01 -0.32977E-01 -0.44318E-01 -0.55857E-01
 -0.64655E-01 -0.67972E-01 -0.64655E-01 -0.55857E-01 -0.44318E-01 -0.32977E-01
 -0.23792E-01 -0.17150E-01 -0.12547E-01 -0.98782E-02 -0.91456E-02 -0.91826E-02
 -0.83946E-02 -0.66471E-02 -0.48824E-02 -0.34121E-02 -0.20145E-02 -0.86285E-03
 -0.19358E-03  0.73028E-04 -0.15865E-02 -0.11958E-02 -0.73854E-03 -0.44616E-03
 -0.54581E-03 -0.13802E-02 -0.30400E-02 -0.51815E-02 -0.77104E-02 -0.10775E-01
 -0.13498E-01 -0.14190E-01 -0.12741E-01 -0.11375E-01 -0.12201E-01 -0.15345E-01
 -0.19964E-01 -0.25682E-01 -0.32302E-01 -0.38927E-01 -0.43957E-01 -0.45847E-01
 -0.43957E-01 -0.38927E-01 -0.32302E-01 -0.25682E-01 -0.19964E-01 -0.15345E-01
 -0.12201E-01 -0.11375E-01 -0.12741E-01 -0.14190E-01 -0.13498E-01 -0.10775E-01
 -0.77103E-02 -0.51815E-02 -0.30400E-02 -0.13802E-02 -0.54583E-03 -0.44619E-03
 -0.11414E-02 -0.94166E-03 -0.73819E-03 -0.64794E-03 -0.86382E-03 -0.17062E-02
 -0.33341E-02 -0.58603E-02 -0.94923E-02 -0.13578E-01 -0.15980E-01 -0.14999E-01
 -0.11762E-01 -0.92795E-02 -0.94051E-02 -0.11878E-01 -0.15689E-01 -0.20024E-01
 -0.24171E-01 -0.27521E-01 -0.29695E-01 -0.30455E-01 -0.29695E-01 -0.27521E-01
 -0.24171E-01 -0.20024E-01 -0.15689E-01 -0.11878E-01 -0.94052E-02 -0.92796E-02
 -0.11762E-01 -0.14999E-01 -0.15980E-01 -0.13578E-01 -0.94922E-02 -0.58603E-02
 -0.33341E-02 -0.17062E-02 -0.86385E-03 -0.64798E-03  0.20456E-03  0.64314E-03
  0.43754E-03  0.23996E-03  0.58608E-03  0.13700E-02  0.20097E-02  0.23111E-02
  0.21180E-02 -0.11527E-03 -0.58902E-02 -0.12809E-01 -0.15364E-01 -0.11278E-01
 -0.40850E-02  0.18759E-02  0.58230E-02  0.87733E-02  0.10751E-01  0.11389E-01
  0.11192E-01  0.11011E-01  0.11192E-01  0.11389E-01  0.10751E-01  0.87733E-02
  0.58230E-02  0.18759E-02 -0.40849E-02 -0.11278E-01 -0.15364E-01 -0.12809E-01
 -0.58902E-02 -0.11525E-03  0.21180E-02  0.23112E-02  0.20097E-02  0.13700E-02
  0.58608E-03  0.23995E-03 -0.13328E-04 -0.18217E-03 -0.32150E-03 -0.63473E-05
  0.86022E-03  0.20487E-02  0.34366E-02  0.58094E-02  0.98345E-02  0.13400E-01
  0.12515E-01  0.67006E-02  0.81446E-03 -0.60516E-03  0.18879E-02  0.52791E-02
  0.83697E-02  0.11354E-01  0.13769E-01  0.14959E-01  0.15186E-01  0.15158E-01
  0.15186E-01  0.14959E-01  0.13769E-01  0.11354E-01  0.83697E-02  0.52791E-02
  0.18879E-02 -0.60514E-03  0.81443E-03  0.67005E-02  0.12515E-01  0.13400E-01
  0.98346E-02  0.58094E-02  0.34366E-02  0.20488E-02  0.86021E-03 -0.63611E-05
 -0.17051E-03 -0.35945E-03 -0.23375E-03  0.12239E-03  0.80979E-03  0.20982E-02
  0.43011E-02  0.83462E-02  0.15133E-01  0.22841E-01  0.26673E-01  0.23707E-01
  0.16697E-01  0.10923E-01  0.87948E-02  0.94391E-02  0.11563E-01  0.14365E-01
  0.16880E-01  0.18358E-01  0.18893E-01  0.18992E-01  0.18893E-01  0.18358E-01
  0.16880E-01  0.14365E-01  0.11563E-01  0.94391E-02  0.87948E-02  0.10923E-01
  0.16697E-01  0.23707E-01  0.26673E-01  0.22841E-01  0.15133E-01  0.83462E-02
  0.43012E-02  0.20982E-02  0.80979E-03  0.12238E-03  0.57949E-04 -0.60862E-05
 -0.15842E-04 -0.86891E-04  0.28874E-03  0.17793E-02  0.45284E-02  0.86817E-02
  0.14841E-01  0.22350E-01  0.27767E-01  0.27496E-01  0.22065E-01  0.15818E-01
  0.12391E-01  0.12227E-01  0.14041E-01  0.16660E-01  0.19299E-01  0.21412E-01
  0.22736E-01  0.23187E-01  0.22736E-01  0.21412E-01  0.19299E-01  0.16660E-01
  0.14041E-01  0.12227E-01  0.12391E-01  0.15818E-01  0.22065E-01  0.27496E-01
  0.27767E-01  0.22350E-01  0.14841E-01  0.86817E-02  0.45284E-02  0.17793E-02
  0.28875E-03 -0.86899E-04  0.18068E-03 -0.14951E-03 -0.57211E-03 -0.78556E-03
 -0.23870E-03  0.14439E-02  0.40276E-02  0.70630E-02  0.10777E-01  0.15404E-01
  0.19360E-01  0.20004E-01  0.17033E-01  0.13348E-01  0.11817E-01  0.12816E-01
  0.15390E-01  0.19008E-01  0.23430E-01  0.27943E-01  0.31376E-01  0.32663E-01
  0.31376E-01  0.27943E-01  0.23430E-01  0.19008E-01  0.15390E-01  0.12816E-01
  0.11817E-01  0.13348E-01  0.17033E-01  0.20004E-01  0.19360E-01  0.15403E-01
  0.10777E-01  0.70630E-02  0.40276E-02  0.14439E-02 -0.23870E-03 -0.78556E-03
 -0.59454E-03 -0.13876E-02 -0.19185E-02 -0.17061E-02 -0.75237E-03  0.75927E-03
  0.26313E-02  0.45310E-02  0.63801E-02  0.83477E-02  0.98881E-02  0.99755E-02
  0.88998E-02  0.83941E-02  0.96158E-02  0.12481E-01  0.16950E-01  0.23348E-01
  0.31330E-01  0.39448E-01  0.45643E-01  0.47984E-01  0.45643E-01  0.39448E-01
  0.31330E-01  0.23348E-01  0.16950E-01  0.12481E-01  0.96157E-02  0.83940E-02
  0.88997E-02  0.99755E-02  0.98880E-02  0.83477E-02  0.63801E-02  0.45310E-02
  0.26314E-02  0.75928E-03 -0.75236E-03 -0.17061E-02 -0.24310E-02 -0.35227E-02
 -0.38003E-02 -0.31011E-02 -0.19591E-02 -0.71866E-03  0.64992E-03  0.19444E-02
  0.28148E-02  0.31504E-02  0.29433E-02  0.24970E-02  0.27519E-02  0.44322E-02
  0.74083E-02  0.11797E-01  0.18513E-01  0.27932E-01  0.39302E-01  0.51265E-01
  0.61213E-01  0.65226E-01  0.61213E-01  0.51265E-01  0.39302E-01  0.27932E-01
  0.18513E-01  0.11797E-01  0.74082E-02  0.44322E-02  0.27518E-02  0.24969E-02
  0.29433E-02  0.31504E-02  0.28148E-02  0.19444E-02  0.64993E-03 -0.71865E-03
 -0.19591E-02 -0.31010E-02 -0.51315E-02 -0.66865E-02 -0.68388E-02 -0.57805E-02
 -0.42510E-02 -0.26169E-02 -0.10763E-02 -0.16058E-03 -0.24209E-03 -0.10664E-02
 -0.20249E-02 -0.23056E-02 -0.12032E-02  0.11757E-02  0.45269E-02  0.96782E-02
  0.17736E-01  0.28888E-01  0.43865E-01  0.63386E-01  0.82676E-01  0.91107E-01
  0.82676E-01  0.63386E-01  0.43866E-01  0.28888E-01  0.17736E-01  0.96782E-02
  0.45268E-02  0.11756E-02 -0.12032E-02 -0.23056E-02 -0.20249E-02 -0.10664E-02
 -0.24210E-03 -0.16058E-03 -0.10763E-02 -0.26169E-02 -0.42510E-02 -0.57805E-02
 -0.85115E-02 -0.11447E-01 -0.12055E-01 -0.10340E-01 -0.74190E-02 -0.44336E-02
 -0.23334E-02 -0.18384E-02 -0.28369E-02 -0.43723E-02 -0.54524E-02 -0.54879E-02
 -0.44006E-02 -0.25128E-02  0.43269E-03  0.55341E-02  0.13358E-01  0.25014E-01
  0.45263E-01  0.77619E-01  0.11233E+00  0.12784E+00  0.11233E+00  0.77619E-01
  0.45263E-01  0.25014E-01  0.13358E-01  0.55341E-02  0.43265E-03 -0.25128E-02
 -0.44006E-02 -0.54879E-02 -0.54524E-02 -0.43723E-02 -0.28368E-02 -0.18384E-02
 -0.23334E-02 -0.44336E-02 -0.74190E-02 -0.10340E-01 -0.11307E-01 -0.16655E-01
 -0.18545E-01 -0.16005E-01 -0.10947E-01 -0.62457E-02 -0.36922E-02 -0.35043E-02
 -0.48010E-02 -0.63884E-02 -0.74583E-02 -0.77528E-02 -0.73564E-02 -0.62579E-02
 -0.39199E-02  0.55820E-04  0.54459E-02  0.14610E-01  0.35192E-01  0.71799E-01
  0.11200E+00  0.13001E+00  0.11200E+00  0.71799E-01  0.35192E-01  0.14610E-01
  0.54459E-02  0.55790E-04 -0.39200E-02 -0.62579E-02 -0.73564E-02 -0.77528E-02
 -0.74582E-02 -0.63884E-02 -0.48009E-02 -0.35043E-02 -0.36922E-02 -0.62457E-02
 -0.10947E-01 -0.16005E-01 -0.11044E-01 -0.18734E-01 -0.22553E-01 -0.19994E-01
 -0.13536E-01 -0.77909E-02 -0.51247E-02 -0.50044E-02 -0.60860E-02 -0.74989E-02
 -0.87417E-02 -0.94852E-02 -0.95673E-02 -0.88574E-02 -0.74191E-02 -0.61481E-02
 -0.62339E-02 -0.64973E-02 -0.23193E-02  0.94849E-02  0.24145E-01  0.30949E-01
  0.24145E-01  0.94849E-02 -0.23193E-02 -0.64973E-02 -0.62339E-02 -0.61482E-02
 -0.74192E-02 -0.88574E-02 -0.95673E-02 -0.94851E-02 -0.87417E-02 -0.74988E-02
 -0.60860E-02 -0.50044E-02 -0.51247E-02 -0.77909E-02 -0.13536E-01 -0.19994E-01
 -0.70016E-02 -0.15404E-01 -0.20815E-01 -0.19469E-01 -0.13590E-01 -0.83051E-02
 -0.60278E-02 -0.59179E-02 -0.68353E-02 -0.83413E-02 -0.98524E-02 -0.10686E-01
 -0.10642E-01 -0.10067E-01 -0.10063E-01 -0.12615E-01 -0.20000E-01 -0.35121E-01
 -0.61826E-01 -0.99800E-01 -0.13682E+00 -0.15262E+00 -0.13682E+00 -0.99800E-01
 -0.61826E-01 -0.35121E-01 -0.20000E-01 -0.12615E-01 -0.10063E-01 -0.10067E-01
 -0.10642E-01 -0.10686E-01 -0.98524E-02 -0.83413E-02 -0.68352E-02 -0.59178E-02
 -0.60278E-02 -0.83051E-02 -0.13590E-01 -0.19469E-01 -0.20107E-02 -0.89903E-02
 -0.14520E-01 -0.14798E-01 -0.11232E-01 -0.78751E-02 -0.64873E-02 -0.64659E-02
 -0.74050E-02 -0.91382E-02 -0.10714E-01 -0.11246E-01 -0.10896E-01 -0.10593E-01
 -0.12050E-01 -0.17718E-01 -0.30531E-01 -0.56875E-01 -0.10796E+00 -0.18622E+00
 -0.26554E+00 -0.29993E+00 -0.26554E+00 -0.18622E+00 -0.10796E+00 -0.56875E-01
 -0.30531E-01 -0.17718E-01 -0.12050E-01 -0.10593E-01 -0.10896E-01 -0.11246E-01
 -0.10714E-01 -0.91382E-02 -0.74050E-02 -0.64659E-02 -0.64873E-02 -0.78751E-02
 -0.11232E-01 -0.14798E-01  0.72620E-03 -0.37829E-02 -0.80031E-02 -0.93553E-02
 -0.84450E-02 -0.73589E-02 -0.68955E-02 -0.70430E-02 -0.81811E-02 -0.10116E-01
 -0.11519E-01 -0.11608E-01 -0.11018E-01 -0.10851E-01 -0.12716E-01 -0.19154E-01
 -0.33135E-01 -0.60826E-01 -0.11386E+00 -0.19569E+00 -0.27942E+00 -0.31594E+00
 -0.27942E+00 -0.19569E+00 -0.11386E+00 -0.60826E-01 -0.33135E-01 -0.19154E-01
 -0.12716E-01 -0.10851E-01 -0.11018E-01 -0.11608E-01 -0.11519E-01 -0.10116E-01
 -0.81811E-02 -0.70430E-02 -0.68955E-02 -0.73589E-02 -0.84450E-02 -0.93553E-02
  0.11100E-02 -0.13910E-02 -0.40818E-02 -0.58823E-02 -0.67582E-02 -0.70762E-02
 -0.72044E-02 -0.78888E-02 -0.97600E-02 -0.12114E-01 -0.13341E-01 -0.12946E-01
 -0.11897E-01 -0.11113E-01 -0.11720E-01 -0.16309E-01 -0.27942E-01 -0.50254E-01
 -0.89489E-01 -0.14735E+00 -0.20586E+00 -0.23135E+00 -0.20586E+00 -0.14735E+00
 -0.89489E-01 -0.50254E-01 -0.27942E-01 -0.16309E-01 -0.11721E-01 -0.11113E-01
 -0.11897E-01 -0.12946E-01 -0.13341E-01 -0.12114E-01 -0.97600E-02 -0.78888E-02
 -0.72044E-02 -0.70762E-02 -0.67582E-02 -0.58823E-02  0.88949E-03 -0.67021E-03
 -0.25438E-02 -0.45448E-02 -0.61669E-02 -0.70112E-02 -0.77627E-02 -0.96335E-02
 -0.12735E-01 -0.15683E-01 -0.16907E-01 -0.16123E-01 -0.14235E-01 -0.11979E-01